
     Program PWSCF v.6.4.1 starts on  4Jun2021 at 15:11:44

     This program is part of the open-source Quantum ESPRESSO suite
     for quantum simulation of materials; please cite
         "P. Giannozzi et al., J. Phys.:Condens. Matter 21 395502 (2009);
         "P. Giannozzi et al., J. Phys.:Condens. Matter 29 465901 (2017);
          URL http://www.quantum-espresso.org",
     in publications or presentations arising from this work. More details at
     http://www.quantum-espresso.org/quote

     Parallel version (MPI & OpenMP), running on     160 processor cores
     Number of MPI processes:               160
     Threads/MPI process:                     1

     MPI processes distributed on     4 nodes
     K-points division:     npool     =       4
     R & G space division:  proc/nbgrp/npool/nimage =      40
     Waiting for input...
     Reading input from standard input

     Current dimensions of program PWSCF are:
     Max number of different atomic species (ntypx) = 10
     Max number of k-points (npk) =  40000
     Max angular momentum in pseudopotentials (lmaxx) =  3
     Presently no symmetry can be used with electric field


     Subspace diagonalization in iterative solution of the eigenvalue problem:
     one sub-group per band group will be used
     scalapack distributed-memory algorithm (size of sub-group:  4*  4 procs)


     Parallelization info
     --------------------
     sticks:   dense  smooth     PW     G-vecs:    dense   smooth      PW
     Min          44      35     10                 7872     5627     846
     Max          45      36     11                 7887     5654     869
     Sum        1781    1433    405               315125   225645   34187



     bravais-lattice index     =            0
     lattice parameter (alat)  =       7.4785  a.u.
     unit-cell volume          =    2333.3700 (a.u.)^3
     number of atoms/cell      =           17
     number of atomic types    =            3
     number of electrons       =       136.00
     number of Kohn-Sham states=           82
     kinetic-energy cutoff     =      80.0000  Ry
     charge density cutoff     =     400.0000  Ry
     convergence threshold     =      1.0E-09
     mixing beta               =       0.3000
     number of iterations used =            8  plain     mixing
     Exchange-correlation      = PBESOL ( 1  4 10  8 0 0)
     nstep                     =           50


     celldm(1)=   7.478466  celldm(2)=   0.000000  celldm(3)=   0.000000
     celldm(4)=   0.000000  celldm(5)=   0.000000  celldm(6)=   0.000000

     crystal axes: (cart. coord. in units of alat)
               a(1) = (   1.000000   0.000000   0.000000 )
               a(2) = (   0.000000   1.000000   0.000000 )
               a(3) = (   0.000000   0.000000   5.578868 )

     reciprocal axes: (cart. coord. in units 2 pi/alat)
               b(1) = (  1.000000 -0.000000  0.000000 )
               b(2) = ( -0.000000  1.000000  0.000000 )
               b(3) = (  0.000000  0.000000  0.179248 )


     PseudoPot. # 1 for Ba read from file:
     ./pseudo/Ba.pbesol-nc-sr.upf
     MD5 check sum: 716a24e91cb490012dd496b6aa92d00e
     Pseudo is Norm-conserving + core correction, Zval = 10.0
     Generated using ONCVPSP code by D. R. Hamann
     Using radial grid of 1936 points,  6 beta functions with:
                l(1) =   0
                l(2) =   0
                l(3) =   1
                l(4) =   1
                l(5) =   2
                l(6) =   2

     PseudoPot. # 2 for Ti read from file:
     ./pseudo/Ti.pbesol-nc-sr.upf
     MD5 check sum: c7cef475492d2ee3d0561e3a3e59fcd4
     Pseudo is Norm-conserving + core correction, Zval = 12.0
     Generated using ONCVPSP code by D. R. Hamann
     Using radial grid of 1586 points,  6 beta functions with:
                l(1) =   0
                l(2) =   0
                l(3) =   1
                l(4) =   1
                l(5) =   2
                l(6) =   2

     PseudoPot. # 3 for O  read from file:
     ./pseudo/O.pbesol-nc-sr.upf
     MD5 check sum: f226cbcd508cec715ff87a8f75a1dfba
     Pseudo is Norm-conserving + core correction, Zval =  6.0
     Generated using ONCVPSP code by D. R. Hamann
     Using radial grid of  936 points,  5 beta functions with:
                l(1) =   0
                l(2) =   0
                l(3) =   1
                l(4) =   1
                l(5) =   2

     atomic species   valence    mass     pseudopotential
        Ba            10.00   137.32700     Ba( 1.00)
        Ti            12.00    47.86700     Ti( 1.00)
        O              6.00    15.99940     O ( 1.00)

     No symmetry found



   Cartesian axes

     site n.     atom                  positions (alat units)
         1           Ba  tau(   1) = (   0.0000000   0.0000000   1.3171450  )
         2           O   tau(   2) = (   0.5000000   0.5000000   1.2883749  )
         3           Ti  tau(   3) = (   0.5000000   0.5000000   1.7854157  )
         4           O   tau(   4) = (   0.5000000  -0.0000000   1.7811290  )
         5           O   tau(   5) = (   0.0000000   0.5000000   1.7811290  )
         6           Ba  tau(   6) = (  -0.0000000   0.0000000   2.3023822  )
         7           O   tau(   7) = (   0.5000000   0.5000000   2.2855816  )
         8           Ti  tau(   8) = (   0.5000000   0.5000003   2.8089837  )
         9           O   tau(   9) = (   0.5000000  -0.0000002   2.7963590  )
        10           O   tau(  10) = (   0.0000000   0.4999999   2.7963590  )
        11           Ba  tau(  11) = (  -0.0000000   0.0000001   3.3043529  )
        12           O   tau(  12) = (   0.5000000   0.5000000   3.2940415  )
        13           Ti  tau(  13) = (   0.5000000   0.5000000   3.8329995  )
        14           O   tau(  14) = (   0.5000000  -0.0000000   3.8181436  )
        15           O   tau(  15) = (  -0.0000000   0.5000000   3.8181436  )
        16           Ba  tau(  16) = (   0.0000000   0.0000000   4.3107382  )
        17           O   tau(  17) = (   0.5000000   0.5000000   4.3006383  )

     number of k points=    34  gaussian smearing, width (Ry)=  0.0050
                       cart. coord. in units 2pi/alat
        k(    1) = (   0.0000000   0.0000000   0.0000000), wk =   0.0312500
        k(    2) = (  -0.0000000   0.1250000   0.0000000), wk =   0.0625000
        k(    3) = (  -0.0000000   0.2500000   0.0000000), wk =   0.0625000
        k(    4) = (  -0.0000000   0.3750000   0.0000000), wk =   0.0625000
        k(    5) = (   0.0000000  -0.5000000   0.0000000), wk =   0.0312500
        k(    6) = (   0.1250000  -0.0000000   0.0000000), wk =   0.0625000
        k(    7) = (   0.1250000   0.1250000   0.0000000), wk =   0.0625000
        k(    8) = (   0.1250000   0.2500000   0.0000000), wk =   0.0625000
        k(    9) = (   0.1250000   0.3750000   0.0000000), wk =   0.0625000
        k(   10) = (   0.1250000  -0.5000000   0.0000000), wk =   0.0625000
        k(   11) = (   0.1250000  -0.3750000   0.0000000), wk =   0.0625000
        k(   12) = (   0.1250000  -0.2500000   0.0000000), wk =   0.0625000
        k(   13) = (   0.1250000  -0.1250000   0.0000000), wk =   0.0625000
        k(   14) = (   0.2500000  -0.0000000   0.0000000), wk =   0.0625000
        k(   15) = (   0.2500000   0.1250000   0.0000000), wk =   0.0625000
        k(   16) = (   0.2500000   0.2500000   0.0000000), wk =   0.0625000
        k(   17) = (   0.2500000   0.3750000   0.0000000), wk =   0.0625000
        k(   18) = (   0.2500000  -0.5000000   0.0000000), wk =   0.0625000
        k(   19) = (   0.2500000  -0.3750000   0.0000000), wk =   0.0625000
        k(   20) = (   0.2500000  -0.2500000   0.0000000), wk =   0.0625000
        k(   21) = (   0.2500000  -0.1250000   0.0000000), wk =   0.0625000
        k(   22) = (   0.3750000  -0.0000000   0.0000000), wk =   0.0625000
        k(   23) = (   0.3750000   0.1250000   0.0000000), wk =   0.0625000
        k(   24) = (   0.3750000   0.2500000   0.0000000), wk =   0.0625000
        k(   25) = (   0.3750000   0.3750000   0.0000000), wk =   0.0625000
        k(   26) = (   0.3750000  -0.5000000   0.0000000), wk =   0.0625000
        k(   27) = (   0.3750000  -0.3750000   0.0000000), wk =   0.0625000
        k(   28) = (   0.3750000  -0.2500000   0.0000000), wk =   0.0625000
        k(   29) = (   0.3750000  -0.1250000   0.0000000), wk =   0.0625000
        k(   30) = (  -0.5000000   0.0000000   0.0000000), wk =   0.0312500
        k(   31) = (  -0.5000000   0.1250000   0.0000000), wk =   0.0625000
        k(   32) = (  -0.5000000   0.2500000   0.0000000), wk =   0.0625000
        k(   33) = (  -0.5000000   0.3750000   0.0000000), wk =   0.0625000
        k(   34) = (  -0.5000000  -0.5000000   0.0000000), wk =   0.0312500

     Dense  grid:   315125 G-vectors     FFT dimensions: (  48,  48, 270)

     Smooth grid:   225645 G-vectors     FFT dimensions: (  45,  45, 240)

     Estimated max dynamical RAM per process >      35.54 MB

     Estimated total dynamical RAM >       5.55 GB

     Initial potential from superposition of free atoms

     starting charge  135.93448, renormalised to  136.00000

     negative rho (up, down):  6.995E-06 0.000E+00

     Adding external electric field

     Computed dipole along edir(3) :
        Dipole                0.0148 Ry au,          0.0375 Debye
        Dipole field          0.0001 Ry au,

        E field amplitude [Ha a.u.]:  3.5000E-02
        Potential amp.        2.8774 Ry
        Total length         41.1999 bohr

     Starting wfcs are   90 randomized atomic wfcs

     total cpu time spent up to now is        1.5 secs

     Self-consistent Calculation

     iteration #  1     ecut=    80.00 Ry     beta= 0.30
     Davidson diagonalization with overlap
     ethr =  1.00E-02,  avg # of iterations =  8.1

     Adding external electric field

     Computed dipole along edir(3) :
        Dipole              153.0314 Ry au,        388.9670 Debye
        Dipole field          0.8242 Ry au,

        E field amplitude [Ha a.u.]:  3.5000E-02
        Potential amp.      -65.0258 Ry
        Total length         41.1999 bohr


     total cpu time spent up to now is        6.5 secs

     total energy              =     268.42582008 Ry
     Harris-Foulkes estimate   =    -809.95655090 Ry
     estimated scf accuracy    <    2348.46636451 Ry

     iteration #  2     ecut=    80.00 Ry     beta= 0.30
     Davidson diagonalization with overlap
     c_bands:  5 eigenvalues not converged
     c_bands:  1 eigenvalues not converged
     c_bands:  5 eigenvalues not converged
     c_bands:  3 eigenvalues not converged
     ethr =  1.00E-02,  avg # of iterations = 20.6

     Adding external electric field

     Computed dipole along edir(3) :
        Dipole               41.9994 Ry au,        106.7519 Debye
        Dipole field          0.2262 Ry au,

        E field amplitude [Ha a.u.]:  3.5000E-02
        Potential amp.      -15.7538 Ry
        Total length         41.1999 bohr


     total cpu time spent up to now is       24.1 secs

     total energy              =    -901.02615314 Ry
     Harris-Foulkes estimate   =   -4912.97308556 Ry
     estimated scf accuracy    <   36461.83158099 Ry

     iteration #  3     ecut=    80.00 Ry     beta= 0.30
     Davidson diagonalization with overlap
     ethr =  1.00E-02,  avg # of iterations = 18.2

     Adding external electric field

     Computed dipole along edir(3) :
        Dipole               29.3100 Ry au,         74.4986 Debye
        Dipole field          0.1578 Ry au,

        E field amplitude [Ha a.u.]:  3.5000E-02
        Potential amp.      -10.1227 Ry
        Total length         41.1999 bohr


     total cpu time spent up to now is       35.3 secs

     total energy              =   -1047.81827544 Ry
     Harris-Foulkes estimate   =   -1933.27952911 Ry
     estimated scf accuracy    <   12003.43080359 Ry

     iteration #  4     ecut=    80.00 Ry     beta= 0.30
     Davidson diagonalization with overlap
     ethr =  1.00E-02,  avg # of iterations = 14.0

     Adding external electric field

     Computed dipole along edir(3) :
        Dipole               22.1145 Ry au,         56.2094 Debye
        Dipole field          0.1191 Ry au,

        E field amplitude [Ha a.u.]:  3.5000E-02
        Potential amp.       -6.9296 Ry
        Total length         41.1999 bohr


     total cpu time spent up to now is       42.6 secs

     total energy              =    -997.82285674 Ry
     Harris-Foulkes estimate   =   -1189.68825523 Ry
     estimated scf accuracy    <    5615.02966980 Ry

     iteration #  5     ecut=    80.00 Ry     beta= 0.30
     Davidson diagonalization with overlap
     ethr =  1.00E-02,  avg # of iterations = 10.4

     Adding external electric field

     Computed dipole along edir(3) :
        Dipole               15.6917 Ry au,         39.8843 Debye
        Dipole field          0.0845 Ry au,

        E field amplitude [Ha a.u.]:  3.5000E-02
        Potential amp.       -4.0794 Ry
        Total length         41.1999 bohr


     total cpu time spent up to now is       48.0 secs

     total energy              =    -884.39338948 Ry
     Harris-Foulkes estimate   =   -1022.62572119 Ry
     estimated scf accuracy    <    4962.44533206 Ry

     iteration #  6     ecut=    80.00 Ry     beta= 0.30
     Davidson diagonalization with overlap
     ethr =  1.00E-02,  avg # of iterations = 10.6

     Adding external electric field

     Computed dipole along edir(3) :
        Dipole               15.4321 Ry au,         39.2245 Debye
        Dipole field          0.0831 Ry au,

        E field amplitude [Ha a.u.]:  3.5000E-02
        Potential amp.       -3.9642 Ry
        Total length         41.1999 bohr


     total cpu time spent up to now is       54.1 secs

     total energy              =    -928.77941896 Ry
     Harris-Foulkes estimate   =    -935.90181806 Ry
     estimated scf accuracy    <     276.89329304 Ry

     iteration #  7     ecut=    80.00 Ry     beta= 0.30
     Davidson diagonalization with overlap
     ethr =  1.00E-02,  avg # of iterations =  8.1

     Adding external electric field

     Computed dipole along edir(3) :
        Dipole               12.7560 Ry au,         32.4225 Debye
        Dipole field          0.0687 Ry au,

        E field amplitude [Ha a.u.]:  3.5000E-02
        Potential amp.       -2.7767 Ry
        Total length         41.1999 bohr


     total cpu time spent up to now is       58.3 secs

     total energy              =    -915.78812174 Ry
     Harris-Foulkes estimate   =    -953.59138960 Ry
     estimated scf accuracy    <    3262.27703307 Ry

     iteration #  8     ecut=    80.00 Ry     beta= 0.30
     Davidson diagonalization with overlap
     ethr =  1.00E-02,  avg # of iterations =  6.3

     Adding external electric field

     Computed dipole along edir(3) :
        Dipole               10.6650 Ry au,         27.1077 Debye
        Dipole field          0.0574 Ry au,

        E field amplitude [Ha a.u.]:  3.5000E-02
        Potential amp.       -1.8487 Ry
        Total length         41.1999 bohr


     total cpu time spent up to now is       61.1 secs

     total energy              =    -916.03275986 Ry
     Harris-Foulkes estimate   =    -924.04320817 Ry
     estimated scf accuracy    <    1027.19823349 Ry

     iteration #  9     ecut=    80.00 Ry     beta= 0.30
     Davidson diagonalization with overlap
     ethr =  1.00E-02,  avg # of iterations =  6.7

     Adding external electric field

     Computed dipole along edir(3) :
        Dipole                8.9141 Ry au,         22.6573 Debye
        Dipole field          0.0480 Ry au,

        E field amplitude [Ha a.u.]:  3.5000E-02
        Potential amp.       -1.0718 Ry
        Total length         41.1999 bohr


     total cpu time spent up to now is       64.0 secs

     total energy              =    -910.84963408 Ry
     Harris-Foulkes estimate   =    -919.23543780 Ry
     estimated scf accuracy    <     562.16976773 Ry

     iteration # 10     ecut=    80.00 Ry     beta= 0.30
     Davidson diagonalization with overlap
     ethr =  1.00E-02,  avg # of iterations =  5.4

     Adding external electric field

     Computed dipole along edir(3) :
        Dipole                3.6660 Ry au,          9.3179 Debye
        Dipole field          0.0197 Ry au,

        E field amplitude [Ha a.u.]:  3.5000E-02
        Potential amp.        1.2572 Ry
        Total length         41.1999 bohr


     total cpu time spent up to now is       67.6 secs

     total energy              =    -905.67266799 Ry
     Harris-Foulkes estimate   =    -915.19580753 Ry
     estimated scf accuracy    <      75.23255940 Ry

     iteration # 11     ecut=    80.00 Ry     beta= 0.30
     Davidson diagonalization with overlap
     ethr =  1.00E-02,  avg # of iterations =  7.6

     Adding external electric field

     Computed dipole along edir(3) :
        Dipole                8.7187 Ry au,         22.1608 Debye
        Dipole field          0.0470 Ry au,

        E field amplitude [Ha a.u.]:  3.5000E-02
        Potential amp.       -0.9851 Ry
        Total length         41.1999 bohr


     total cpu time spent up to now is       72.0 secs

     total energy              =    -881.77834752 Ry
     Harris-Foulkes estimate   =    -930.28732898 Ry
     estimated scf accuracy    <    2497.21485223 Ry

     iteration # 12     ecut=    80.00 Ry     beta= 0.30
     Davidson diagonalization with overlap
     ethr =  1.00E-02,  avg # of iterations =  7.4

     Adding external electric field

     Computed dipole along edir(3) :
        Dipole               10.4215 Ry au,         26.4887 Debye
        Dipole field          0.0561 Ry au,

        E field amplitude [Ha a.u.]:  3.5000E-02
        Potential amp.       -1.7407 Ry
        Total length         41.1999 bohr


     total cpu time spent up to now is       75.5 secs

     total energy              =    -915.41805391 Ry
     Harris-Foulkes estimate   =    -915.61132184 Ry
     estimated scf accuracy    <       7.24046799 Ry

     iteration # 13     ecut=    80.00 Ry     beta= 0.30
     Davidson diagonalization with overlap
     ethr =  5.32E-03,  avg # of iterations =  5.0

     Adding external electric field

     Computed dipole along edir(3) :
        Dipole               10.1099 Ry au,         25.6967 Debye
        Dipole field          0.0544 Ry au,

        E field amplitude [Ha a.u.]:  3.5000E-02
        Potential amp.       -1.6024 Ry
        Total length         41.1999 bohr


     total cpu time spent up to now is       77.9 secs

     total energy              =    -915.59674300 Ry
     Harris-Foulkes estimate   =    -916.38688492 Ry
     estimated scf accuracy    <      61.08656271 Ry

     iteration # 14     ecut=    80.00 Ry     beta= 0.30
     Davidson diagonalization with overlap
     ethr =  5.32E-03,  avg # of iterations =  1.1

     Adding external electric field

     Computed dipole along edir(3) :
        Dipole                8.9922 Ry au,         22.8559 Debye
        Dipole field          0.0484 Ry au,

        E field amplitude [Ha a.u.]:  3.5000E-02
        Potential amp.       -1.1064 Ry
        Total length         41.1999 bohr


     total cpu time spent up to now is       79.5 secs

     total energy              =    -913.35955777 Ry
     Harris-Foulkes estimate   =    -915.99618527 Ry
     estimated scf accuracy    <      22.19767591 Ry

     iteration # 15     ecut=    80.00 Ry     beta= 0.30
     Davidson diagonalization with overlap
     ethr =  5.32E-03,  avg # of iterations =  3.1

     Adding external electric field

     Computed dipole along edir(3) :
        Dipole                9.6319 Ry au,         24.4818 Debye
        Dipole field          0.0519 Ry au,

        E field amplitude [Ha a.u.]:  3.5000E-02
        Potential amp.       -1.3903 Ry
        Total length         41.1999 bohr


     total cpu time spent up to now is       81.5 secs

     total energy              =    -914.82811816 Ry
     Harris-Foulkes estimate   =    -915.11027213 Ry
     estimated scf accuracy    <       6.33039335 Ry

     iteration # 16     ecut=    80.00 Ry     beta= 0.30
     Davidson diagonalization with overlap
     ethr =  4.65E-03,  avg # of iterations =  2.0

     Adding external electric field

     Computed dipole along edir(3) :
        Dipole                8.9375 Ry au,         22.7169 Debye
        Dipole field          0.0481 Ry au,

        E field amplitude [Ha a.u.]:  3.5000E-02
        Potential amp.       -1.0822 Ry
        Total length         41.1999 bohr


     total cpu time spent up to now is       83.5 secs

     total energy              =    -913.11159292 Ry
     Harris-Foulkes estimate   =    -915.44529837 Ry
     estimated scf accuracy    <      81.80141188 Ry

     iteration # 17     ecut=    80.00 Ry     beta= 0.30
     Davidson diagonalization with overlap
     ethr =  4.65E-03,  avg # of iterations =  5.0

     Adding external electric field

     Computed dipole along edir(3) :
        Dipole                9.1333 Ry au,         23.2145 Debye
        Dipole field          0.0492 Ry au,

        E field amplitude [Ha a.u.]:  3.5000E-02
        Potential amp.       -1.1690 Ry
        Total length         41.1999 bohr


     total cpu time spent up to now is       85.8 secs

     total energy              =    -914.51386644 Ry
     Harris-Foulkes estimate   =    -914.79443037 Ry
     estimated scf accuracy    <       5.70657058 Ry

     iteration # 18     ecut=    80.00 Ry     beta= 0.30
     Davidson diagonalization with overlap
     ethr =  4.20E-03,  avg # of iterations =  7.5

     Adding external electric field

     Computed dipole along edir(3) :
        Dipole                9.2048 Ry au,         23.3963 Debye
        Dipole field          0.0496 Ry au,

        E field amplitude [Ha a.u.]:  3.5000E-02
        Potential amp.       -1.2008 Ry
        Total length         41.1999 bohr


     total cpu time spent up to now is       89.2 secs

     total energy              =    -914.20910019 Ry
     Harris-Foulkes estimate   =    -915.91199982 Ry
     estimated scf accuracy    <     210.88497312 Ry

     iteration # 19     ecut=    80.00 Ry     beta= 0.30
     Davidson diagonalization with overlap
     ethr =  4.20E-03,  avg # of iterations =  2.5

     Adding external electric field

     Computed dipole along edir(3) :
        Dipole                8.5269 Ry au,         21.6732 Debye
        Dipole field          0.0459 Ry au,

        E field amplitude [Ha a.u.]:  3.5000E-02
        Potential amp.       -0.8999 Ry
        Total length         41.1999 bohr


     total cpu time spent up to now is       91.2 secs

     total energy              =    -913.36477416 Ry
     Harris-Foulkes estimate   =    -914.89596888 Ry
     estimated scf accuracy    <     164.01644072 Ry

     iteration # 20     ecut=    80.00 Ry     beta= 0.30
     Davidson diagonalization with overlap
     ethr =  4.20E-03,  avg # of iterations =  1.9

     Adding external electric field

     Computed dipole along edir(3) :
        Dipole                6.3547 Ry au,         16.1520 Debye
        Dipole field          0.0342 Ry au,

        E field amplitude [Ha a.u.]:  3.5000E-02
        Potential amp.        0.0640 Ry
        Total length         41.1999 bohr


     total cpu time spent up to now is       92.9 secs

     total energy              =    -913.01753778 Ry
     Harris-Foulkes estimate   =    -914.40483509 Ry
     estimated scf accuracy    <      28.32087066 Ry

     iteration # 21     ecut=    80.00 Ry     beta= 0.30
     Davidson diagonalization with overlap
     ethr =  4.20E-03,  avg # of iterations =  3.4

     negative rho (up, down):  6.406E-04 0.000E+00

     Adding external electric field

     Computed dipole along edir(3) :
        Dipole                5.4956 Ry au,         13.9685 Debye
        Dipole field          0.0296 Ry au,

        E field amplitude [Ha a.u.]:  3.5000E-02
        Potential amp.        0.4452 Ry
        Total length         41.1999 bohr


     total cpu time spent up to now is       95.2 secs

     total energy              =    -909.61850977 Ry
     Harris-Foulkes estimate   =    -915.89919259 Ry
     estimated scf accuracy    <     324.83240492 Ry

     iteration # 22     ecut=    80.00 Ry     beta= 0.30
     Davidson diagonalization with overlap
     ethr =  4.20E-03,  avg # of iterations =  1.9

     negative rho (up, down):  2.154E-03 0.000E+00

     Adding external electric field

     Computed dipole along edir(3) :
        Dipole                5.0383 Ry au,         12.8061 Debye
        Dipole field          0.0271 Ry au,

        E field amplitude [Ha a.u.]:  3.5000E-02
        Potential amp.        0.6482 Ry
        Total length         41.1999 bohr


     total cpu time spent up to now is       97.0 secs

     total energy              =    -912.61491503 Ry
     Harris-Foulkes estimate   =    -912.73919601 Ry
     estimated scf accuracy    <       0.62906391 Ry

     iteration # 23     ecut=    80.00 Ry     beta= 0.30
     Davidson diagonalization with overlap
     ethr =  4.63E-04,  avg # of iterations =  6.5

     negative rho (up, down):  1.567E-03 0.000E+00

     Adding external electric field

     Computed dipole along edir(3) :
        Dipole                4.8720 Ry au,         12.3835 Debye
        Dipole field          0.0262 Ry au,

        E field amplitude [Ha a.u.]:  3.5000E-02
        Potential amp.        0.7220 Ry
        Total length         41.1999 bohr


     total cpu time spent up to now is      100.0 secs

     total energy              =    -912.68686137 Ry
     Harris-Foulkes estimate   =    -912.73147330 Ry
     estimated scf accuracy    <       0.67573369 Ry

     iteration # 24     ecut=    80.00 Ry     beta= 0.30
     Davidson diagonalization with overlap
     ethr =  4.63E-04,  avg # of iterations =  1.4

     negative rho (up, down):  1.607E-04 0.000E+00

     Adding external electric field

     Computed dipole along edir(3) :
        Dipole                4.7273 Ry au,         12.0157 Debye
        Dipole field          0.0255 Ry au,

        E field amplitude [Ha a.u.]:  3.5000E-02
        Potential amp.        0.7862 Ry
        Total length         41.1999 bohr


     total cpu time spent up to now is      101.8 secs

     total energy              =    -912.66365917 Ry
     Harris-Foulkes estimate   =    -912.69484520 Ry
     estimated scf accuracy    <       0.18061446 Ry

     iteration # 25     ecut=    80.00 Ry     beta= 0.30
     Davidson diagonalization with overlap
     ethr =  1.33E-04,  avg # of iterations =  5.4

     Adding external electric field

     Computed dipole along edir(3) :
        Dipole                4.7591 Ry au,         12.0964 Debye
        Dipole field          0.0256 Ry au,

        E field amplitude [Ha a.u.]:  3.5000E-02
        Potential amp.        0.7721 Ry
        Total length         41.1999 bohr


     total cpu time spent up to now is      104.4 secs

     total energy              =    -912.67397585 Ry
     Harris-Foulkes estimate   =    -912.67821344 Ry
     estimated scf accuracy    <       0.07432592 Ry

     iteration # 26     ecut=    80.00 Ry     beta= 0.30
     Davidson diagonalization with overlap
     ethr =  5.47E-05,  avg # of iterations =  1.3

     Adding external electric field

     Computed dipole along edir(3) :
        Dipole                4.6748 Ry au,         11.8822 Debye
        Dipole field          0.0252 Ry au,

        E field amplitude [Ha a.u.]:  3.5000E-02
        Potential amp.        0.8095 Ry
        Total length         41.1999 bohr


     total cpu time spent up to now is      106.1 secs

     total energy              =    -912.67190137 Ry
     Harris-Foulkes estimate   =    -912.67363972 Ry
     estimated scf accuracy    <       0.06309102 Ry

     iteration # 27     ecut=    80.00 Ry     beta= 0.30
     Davidson diagonalization with overlap
     ethr =  4.64E-05,  avg # of iterations =  3.0

     Adding external electric field

     Computed dipole along edir(3) :
        Dipole                4.6844 Ry au,         11.9065 Debye
        Dipole field          0.0252 Ry au,

        E field amplitude [Ha a.u.]:  3.5000E-02
        Potential amp.        0.8052 Ry
        Total length         41.1999 bohr


     total cpu time spent up to now is      108.2 secs

     total energy              =    -912.67356161 Ry
     Harris-Foulkes estimate   =    -912.67499574 Ry
     estimated scf accuracy    <       0.07989435 Ry

     iteration # 28     ecut=    80.00 Ry     beta= 0.30
     Davidson diagonalization with overlap
     ethr =  4.64E-05,  avg # of iterations =  1.8

     Adding external electric field

     Computed dipole along edir(3) :
        Dipole                4.6755 Ry au,         11.8839 Debye
        Dipole field          0.0252 Ry au,

        E field amplitude [Ha a.u.]:  3.5000E-02
        Potential amp.        0.8092 Ry
        Total length         41.1999 bohr


     total cpu time spent up to now is      110.1 secs

     total energy              =    -912.67400646 Ry
     Harris-Foulkes estimate   =    -912.67466437 Ry
     estimated scf accuracy    <       0.08837441 Ry

     iteration # 29     ecut=    80.00 Ry     beta= 0.30
     Davidson diagonalization with overlap
     ethr =  4.64E-05,  avg # of iterations =  1.0

     Adding external electric field

     Computed dipole along edir(3) :
        Dipole                4.7472 Ry au,         12.0662 Debye
        Dipole field          0.0256 Ry au,

        E field amplitude [Ha a.u.]:  3.5000E-02
        Potential amp.        0.7773 Ry
        Total length         41.1999 bohr


     total cpu time spent up to now is      111.6 secs

     total energy              =    -912.67026103 Ry
     Harris-Foulkes estimate   =    -912.67576016 Ry
     estimated scf accuracy    <       0.07806603 Ry

     iteration # 30     ecut=    80.00 Ry     beta= 0.30
     Davidson diagonalization with overlap
     ethr =  4.64E-05,  avg # of iterations =  1.1

     Adding external electric field

     Computed dipole along edir(3) :
        Dipole                4.5577 Ry au,         11.5846 Debye
        Dipole field          0.0245 Ry au,

        E field amplitude [Ha a.u.]:  3.5000E-02
        Potential amp.        0.8614 Ry
        Total length         41.1999 bohr


     total cpu time spent up to now is      113.2 secs

     total energy              =    -912.66816109 Ry
     Harris-Foulkes estimate   =    -912.66854396 Ry
     estimated scf accuracy    <       0.04353488 Ry

     iteration # 31     ecut=    80.00 Ry     beta= 0.30
     Davidson diagonalization with overlap
     c_bands:  1 eigenvalues not converged
     ethr =  3.20E-05,  avg # of iterations =  6.3

     Adding external electric field

     Computed dipole along edir(3) :
        Dipole                4.6472 Ry au,         11.8121 Debye
        Dipole field          0.0250 Ry au,

        E field amplitude [Ha a.u.]:  3.5000E-02
        Potential amp.        0.8217 Ry
        Total length         41.1999 bohr


     total cpu time spent up to now is      116.3 secs

     total energy              =    -912.66442654 Ry
     Harris-Foulkes estimate   =    -912.67381424 Ry
     estimated scf accuracy    <       0.07384347 Ry

     iteration # 32     ecut=    80.00 Ry     beta= 0.30
     Davidson diagonalization with overlap
     ethr =  3.20E-05,  avg # of iterations =  2.9

     Adding external electric field

     Computed dipole along edir(3) :
        Dipole                4.4975 Ry au,         11.4315 Debye
        Dipole field          0.0242 Ry au,

        E field amplitude [Ha a.u.]:  3.5000E-02
        Potential amp.        0.8882 Ry
        Total length         41.1999 bohr


     total cpu time spent up to now is      118.4 secs

     total energy              =    -912.66336945 Ry
     Harris-Foulkes estimate   =    -912.66431804 Ry
     estimated scf accuracy    <       0.01295384 Ry

     iteration # 33     ecut=    80.00 Ry     beta= 0.30
     Davidson diagonalization with overlap
     ethr =  9.52E-06,  avg # of iterations = 13.8

     Adding external electric field

     Computed dipole along edir(3) :
        Dipole                4.6318 Ry au,         11.7728 Debye
        Dipole field          0.0249 Ry au,

        E field amplitude [Ha a.u.]:  3.5000E-02
        Potential amp.        0.8286 Ry
        Total length         41.1999 bohr


     total cpu time spent up to now is      123.2 secs

     total energy              =    -912.65919508 Ry
     Harris-Foulkes estimate   =    -912.67057876 Ry
     estimated scf accuracy    <       0.12655122 Ry

     iteration # 34     ecut=    80.00 Ry     beta= 0.30
     Davidson diagonalization with overlap
     c_bands:  1 eigenvalues not converged
     ethr =  9.52E-06,  avg # of iterations = 15.0

     Adding external electric field

     Computed dipole along edir(3) :
        Dipole                4.6189 Ry au,         11.7401 Debye
        Dipole field          0.0249 Ry au,

        E field amplitude [Ha a.u.]:  3.5000E-02
        Potential amp.        0.8343 Ry
        Total length         41.1999 bohr


     total cpu time spent up to now is      127.7 secs

     total energy              =    -912.66607137 Ry
     Harris-Foulkes estimate   =    -912.66615863 Ry
     estimated scf accuracy    <       0.00718043 Ry

     iteration # 35     ecut=    80.00 Ry     beta= 0.30
     Davidson diagonalization with overlap
     ethr =  5.28E-06,  avg # of iterations =  2.7

     Adding external electric field

     Computed dipole along edir(3) :
        Dipole                4.5826 Ry au,         11.6479 Debye
        Dipole field          0.0247 Ry au,

        E field amplitude [Ha a.u.]:  3.5000E-02
        Potential amp.        0.8504 Ry
        Total length         41.1999 bohr


     total cpu time spent up to now is      130.0 secs

     total energy              =    -912.66559822 Ry
     Harris-Foulkes estimate   =    -912.66538337 Ry
     estimated scf accuracy    <       0.00449380 Ry

     iteration # 36     ecut=    80.00 Ry     beta= 0.30
     Davidson diagonalization with overlap
     c_bands:  1 eigenvalues not converged
     c_bands:  2 eigenvalues not converged
     ethr =  3.30E-06,  avg # of iterations = 12.5

     Adding external electric field

     Computed dipole along edir(3) :
        Dipole                4.5763 Ry au,         11.6317 Debye
        Dipole field          0.0246 Ry au,

        E field amplitude [Ha a.u.]:  3.5000E-02
        Potential amp.        0.8532 Ry
        Total length         41.1999 bohr


     total cpu time spent up to now is      134.3 secs

     total energy              =    -912.66577610 Ry
     Harris-Foulkes estimate   =    -912.66566445 Ry
     estimated scf accuracy    <       0.00017411 Ry

     iteration # 37     ecut=    80.00 Ry     beta= 0.30
     Davidson diagonalization with overlap
     ethr =  1.28E-07,  avg # of iterations =  3.7

     Adding external electric field

     Computed dipole along edir(3) :
        Dipole                4.5731 Ry au,         11.6236 Debye
        Dipole field          0.0246 Ry au,

        E field amplitude [Ha a.u.]:  3.5000E-02
        Potential amp.        0.8546 Ry
        Total length         41.1999 bohr


     total cpu time spent up to now is      136.6 secs

     total energy              =    -912.66578859 Ry
     Harris-Foulkes estimate   =    -912.66572586 Ry
     estimated scf accuracy    <       0.00004465 Ry

     iteration # 38     ecut=    80.00 Ry     beta= 0.30
     Davidson diagonalization with overlap
     ethr =  3.28E-08,  avg # of iterations =  2.1

     Adding external electric field

     Computed dipole along edir(3) :
        Dipole                4.5703 Ry au,         11.6167 Debye
        Dipole field          0.0246 Ry au,

        E field amplitude [Ha a.u.]:  3.5000E-02
        Potential amp.        0.8558 Ry
        Total length         41.1999 bohr


     total cpu time spent up to now is      138.5 secs

     total energy              =    -912.66579050 Ry
     Harris-Foulkes estimate   =    -912.66573400 Ry
     estimated scf accuracy    <       0.00000609 Ry

     iteration # 39     ecut=    80.00 Ry     beta= 0.30
     Davidson diagonalization with overlap
     ethr =  4.48E-09,  avg # of iterations =  4.4

     Adding external electric field

     Computed dipole along edir(3) :
        Dipole                4.5708 Ry au,         11.6177 Debye
        Dipole field          0.0246 Ry au,

        E field amplitude [Ha a.u.]:  3.5000E-02
        Potential amp.        0.8557 Ry
        Total length         41.1999 bohr


     total cpu time spent up to now is      140.9 secs

     total energy              =    -912.66579079 Ry
     Harris-Foulkes estimate   =    -912.66580000 Ry
     estimated scf accuracy    <       0.00000307 Ry

     iteration # 40     ecut=    80.00 Ry     beta= 0.30
     Davidson diagonalization with overlap
     ethr =  2.25E-09,  avg # of iterations =  2.1

     Adding external electric field

     Computed dipole along edir(3) :
        Dipole                4.5708 Ry au,         11.6177 Debye
        Dipole field          0.0246 Ry au,

        E field amplitude [Ha a.u.]:  3.5000E-02
        Potential amp.        0.8557 Ry
        Total length         41.1999 bohr


     total cpu time spent up to now is      142.7 secs

     total energy              =    -912.66579101 Ry
     Harris-Foulkes estimate   =    -912.66579091 Ry
     estimated scf accuracy    <       0.00000041 Ry

     iteration # 41     ecut=    80.00 Ry     beta= 0.30
     Davidson diagonalization with overlap
     ethr =  3.03E-10,  avg # of iterations =  3.3

     Adding external electric field

     Computed dipole along edir(3) :
        Dipole                4.5706 Ry au,         11.6173 Debye
        Dipole field          0.0246 Ry au,

        E field amplitude [Ha a.u.]:  3.5000E-02
        Potential amp.        0.8557 Ry
        Total length         41.1999 bohr


     total cpu time spent up to now is      144.8 secs

     total energy              =    -912.66579108 Ry
     Harris-Foulkes estimate   =    -912.66578754 Ry
     estimated scf accuracy    <       0.00000007 Ry

     iteration # 42     ecut=    80.00 Ry     beta= 0.30
     Davidson diagonalization with overlap
     ethr =  5.33E-11,  avg # of iterations =  3.0

     Adding external electric field

     Computed dipole along edir(3) :
        Dipole                4.5706 Ry au,         11.6174 Debye
        Dipole field          0.0246 Ry au,

        E field amplitude [Ha a.u.]:  3.5000E-02
        Potential amp.        0.8557 Ry
        Total length         41.1999 bohr


     total cpu time spent up to now is      146.9 secs

     total energy              =    -912.66579108 Ry
     Harris-Foulkes estimate   =    -912.66579211 Ry
     estimated scf accuracy    <       0.00000002 Ry

     iteration # 43     ecut=    80.00 Ry     beta= 0.30
     Davidson diagonalization with overlap
     ethr =  1.62E-11,  avg # of iterations =  2.4

     Adding external electric field

     Computed dipole along edir(3) :
        Dipole                4.5705 Ry au,         11.6170 Debye
        Dipole field          0.0246 Ry au,

        E field amplitude [Ha a.u.]:  3.5000E-02
        Potential amp.        0.8558 Ry
        Total length         41.1999 bohr


     total cpu time spent up to now is      148.7 secs

     total energy              =    -912.66579109 Ry
     Harris-Foulkes estimate   =    -912.66578754 Ry
     estimated scf accuracy    <       0.00000004 Ry

     iteration # 44     ecut=    80.00 Ry     beta= 0.30
     Davidson diagonalization with overlap
     ethr =  1.62E-11,  avg # of iterations =  1.8

     Adding external electric field

     Computed dipole along edir(3) :
        Dipole                4.5705 Ry au,         11.6171 Debye
        Dipole field          0.0246 Ry au,

        E field amplitude [Ha a.u.]:  3.5000E-02
        Potential amp.        0.8558 Ry
        Total length         41.1999 bohr


     total cpu time spent up to now is      150.5 secs

     total energy              =    -912.66579109 Ry
     Harris-Foulkes estimate   =    -912.66579226 Ry
     estimated scf accuracy    <          5.7E-09 Ry

     iteration # 45     ecut=    80.00 Ry     beta= 0.30
     Davidson diagonalization with overlap
     ethr =  4.17E-12,  avg # of iterations =  1.7

     Adding external electric field

     Computed dipole along edir(3) :
        Dipole                4.5704 Ry au,         11.6168 Debye
        Dipole field          0.0246 Ry au,

        E field amplitude [Ha a.u.]:  3.5000E-02
        Potential amp.        0.8558 Ry
        Total length         41.1999 bohr


     total cpu time spent up to now is      152.3 secs

     End of self-consistent calculation

          k = 0.0000 0.0000 0.0000 ( 28203 PWs)   bands (ev):

   -50.4983 -50.4553 -50.3826 -26.9090 -26.9090 -26.8532 -26.8333 -26.8333
   -26.8302 -26.7826 -26.7819 -26.7819 -20.0688 -20.0069 -19.0526 -18.9757
   -11.6108 -11.4588 -11.2394 -10.7624 -10.5997 -10.4880 -10.3147 -10.1366
    -9.9193  -9.7292  -5.1715  -5.1585  -5.0350  -5.0350  -4.9756  -4.9756
    -4.1795  -4.1795  -4.1772  -4.0779  -4.0779  -3.9251   2.0784   2.7440
     2.7440   2.8037   2.9269   2.9269   3.2259   3.2259   3.4348   3.5588
     3.5645   3.7680   3.9515   3.9973   3.9973   4.1570   4.1570   4.1735
     4.3029   4.3029   4.4064   4.4064   4.4635   4.9782   4.9782   5.1517
     5.1517   5.1873   5.4742   5.4742   5.5830   7.4115   7.5423   7.6192
     8.0076   8.0076   8.6195   8.6195   8.8563   9.1378   9.1378   9.8340
     9.8721   9.9629

          k =-0.0000 0.1250 0.0000 ( 28213 PWs)   bands (ev):

   -50.4981 -50.4551 -50.3824 -26.9187 -26.9086 -26.8526 -26.8426 -26.8330
   -26.8297 -26.7915 -26.7820 -26.7816 -20.0555 -19.9927 -19.0348 -18.9614
   -11.5517 -11.4023 -11.2143 -10.7517 -10.5877 -10.4749 -10.3313 -10.1697
    -9.9640  -9.7767  -5.1969  -5.1845  -5.0108  -5.0018  -4.9518  -4.9373
    -4.2029  -4.1572  -4.1513  -4.0589  -4.0465  -3.9518   2.0203   2.5655
     2.6898   2.7478   2.9094   2.9282   2.9314   3.0067   3.2090   3.2594
     3.5263   3.6262   3.7613   3.8443   3.9352   3.9858   4.1009   4.1842
     4.2253   4.2501   4.3777   4.5237   4.6290   4.7879   4.8006   4.9834
     5.0173   5.1140   5.3548   5.3622   5.6951   7.7327   7.8602   7.9275
     8.0338   8.1521   8.6329   8.6382   8.9872   9.1397   9.1432  10.0937
    10.1440  10.1721

          k =-0.0000 0.2500 0.0000 ( 28241 PWs)   bands (ev):

   -50.4977 -50.4547 -50.3819 -26.9420 -26.9077 -26.8650 -26.8511 -26.8321
   -26.8285 -26.8146 -26.7808 -26.7806 -20.0234 -19.9581 -18.9913 -18.9262
   -11.4396 -11.2898 -11.1837 -10.7049 -10.5403 -10.4229 -10.3490 -10.2333
   -10.0659  -9.8837  -5.2326  -5.2075  -4.9586  -4.9511  -4.8928  -4.8717
    -4.2252  -4.1536  -4.0814  -4.0504  -3.9680  -3.9609   1.8733   2.0844
     2.2290   2.3092   2.4574   2.6444   2.7595   2.8012   2.9322   3.1398
     3.2738   3.4178   3.4877   3.5001   3.6067   3.6894   3.7772   3.9687
     4.0642   4.2346   4.2988   4.4586   4.4601   4.4955   4.6201   4.7505
     5.1321   5.1586   5.2093   5.3286   6.0745   8.0672   8.4010   8.5474
     8.5562   8.6170   8.6857   8.8601   9.1585   9.2501   9.3672  10.2225
    10.3698  10.5588

          k =-0.0000 0.3750 0.0000 ( 28244 PWs)   bands (ev):

   -50.4972 -50.4543 -50.3815 -26.9651 -26.9068 -26.8872 -26.8496 -26.8375
   -26.8312 -26.8273 -26.7797 -26.7795 -19.9907 -19.9229 -18.9469 -18.8901
   -11.4158 -11.2804 -11.0901 -10.6284 -10.4718 -10.3512 -10.3112 -10.2787
   -10.1569  -9.9771  -5.2534  -5.2074  -4.9352  -4.8894  -4.8319  -4.8194
    -4.2239  -4.2020  -4.0796  -4.0083  -3.8954  -3.8857   1.4803   1.5852
     1.7104   1.7985   2.1126   2.2057   2.6634   2.7827   2.8974   2.9391
     2.9923   3.1536   3.2627   3.2719   3.3324   3.3660   3.5264   3.7698
     3.9375   3.9769   4.1818   4.3667   4.5022   4.5239   4.6134   4.6568
     4.9331   5.1302   5.2304   5.4403   6.7790   8.1238   8.6961   8.9957
     8.9998   9.1409   9.1622   9.1776   9.1789   9.2900   9.5343   9.9101
    10.3127  10.5784

          k = 0.0000-0.5000 0.0000 ( 28222 PWs)   bands (ev):

   -50.4970 -50.4541 -50.3813 -26.9746 -26.9064 -26.8963 -26.8490 -26.8469
   -26.8308 -26.8268 -26.7794 -26.7789 -19.9771 -19.9083 -18.9283 -18.8748
   -11.4379 -11.2936 -11.0395 -10.5887 -10.4320 -10.3501 -10.2966 -10.2460
   -10.1905 -10.0113  -5.2598  -5.2030  -4.9287  -4.8632  -4.8060  -4.7987
    -4.2603  -4.1611  -4.1193  -3.9771  -3.8621  -3.8503   1.2411   1.3612
     1.4757   1.6252   2.0031   2.0882   2.6450   2.7257   2.8085   2.8974
     2.9344   3.0449   3.1093   3.1880   3.2273   3.3487   3.4658   3.6356
     3.7826   3.9454   4.0770   4.4377   4.4667   4.5940   4.6657   4.6753
     4.8574   5.0491   5.1848   5.5006   7.7013   7.8612   8.1480   8.7151
     9.1824   9.2392   9.3797   9.3845   9.3924   9.4837   9.6872  10.2072
    10.4474  10.7118

          k = 0.1250-0.0000 0.0000 ( 28213 PWs)   bands (ev):

   -50.4981 -50.4551 -50.3824 -26.9187 -26.9086 -26.8526 -26.8426 -26.8330
   -26.8297 -26.7915 -26.7820 -26.7816 -20.0555 -19.9927 -19.0348 -18.9614
   -11.5517 -11.4023 -11.2143 -10.7517 -10.5877 -10.4749 -10.3313 -10.1697
    -9.9640  -9.7767  -5.1969  -5.1845  -5.0108  -5.0018  -4.9518  -4.9373
    -4.2029  -4.1572  -4.1513  -4.0589  -4.0465  -3.9518   2.0203   2.5655
     2.6898   2.7478   2.9094   2.9282   2.9314   3.0067   3.2090   3.2594
     3.5263   3.6262   3.7613   3.8443   3.9352   3.9858   4.1009   4.1842
     4.2253   4.2501   4.3777   4.5237   4.6290   4.7879   4.8006   4.9834
     5.0173   5.1140   5.3548   5.3622   5.6951   7.7327   7.8602   7.9275
     8.0338   8.1521   8.6329   8.6382   8.9872   9.1397   9.1432  10.0936
    10.1443  10.1720

          k = 0.1250 0.1250 0.0000 ( 28205 PWs)   bands (ev):

   -50.4980 -50.4550 -50.3822 -26.9186 -26.9180 -26.8520 -26.8424 -26.8420
   -26.8292 -26.7914 -26.7909 -26.7815 -20.0428 -19.9790 -19.0178 -18.9474
   -11.4900 -11.3415 -11.1772 -10.7448 -10.5792 -10.4641 -10.3412 -10.1939
    -9.9961  -9.8108  -5.2214  -5.1976  -5.1189  -5.0480  -4.8915  -4.8256
    -4.2363  -4.2023  -4.1928  -4.1240  -3.9262  -3.9068   1.9687   2.4119
     2.6296   2.7141   2.7512   2.8542   2.8616   2.9240   3.0669   3.2059
     3.3189   3.4206   3.5254   3.7177   3.7201   3.8602   3.8947   4.2033
     4.3207   4.3812   4.4796   4.5393   4.5556   4.6645   4.8168   4.8482
     4.9418   5.0493   5.2641   5.3351   5.8094   7.9611   8.0791   8.1644
     8.1904   8.1973   8.6474   8.7063   9.1105   9.1403   9.1936  10.2739
    10.4569  10.4913

          k = 0.1250 0.2500 0.0000 ( 28223 PWs)   bands (ev):

   -50.4975 -50.4545 -50.3818 -26.9415 -26.9173 -26.8646 -26.8505 -26.8413
   -26.8280 -26.8141 -26.7901 -26.7803 -20.0117 -19.9456 -18.9763 -18.9131
   -11.3676 -11.2200 -11.1161 -10.7060 -10.5380 -10.4214 -10.3459 -10.2388
   -10.0704  -9.8885  -5.2705  -5.2289  -5.1560  -5.0762  -4.8478  -4.7700
    -4.3018  -4.2230  -4.2074  -4.1773  -3.8810  -3.8482   1.8451   2.0200
     2.1954   2.3056   2.4503   2.6071   2.6328   2.7774   2.8691   3.0062
     3.2152   3.2689   3.2838   3.3837   3.3918   3.5733   3.6642   3.9122
     4.0638   4.2654   4.3634   4.4691   4.5691   4.5823   4.7098   4.9099
     5.0774   5.1114   5.1553   5.2531   6.2096   8.2581   8.5030   8.6374
     8.6599   8.6926   8.7704   8.9249   9.2050   9.3056   9.4911  10.4832
    10.5551  10.8920

          k = 0.1250 0.3750 0.0000 ( 28238 PWs)   bands (ev):

   -50.4970 -50.4541 -50.3813 -26.9645 -26.9162 -26.8867 -26.8491 -26.8403
   -26.8369 -26.8268 -26.7891 -26.7790 -19.9802 -19.9118 -18.9340 -18.8781
   -11.3299 -11.1969 -11.0072 -10.6300 -10.4667 -10.3406 -10.3238 -10.2671
   -10.1370  -9.9565  -5.3124  -5.2445  -5.1157  -5.0179  -4.8932  -4.8024
    -4.3182  -4.2802  -4.1846  -4.1158  -3.9308  -3.8715   1.4727   1.5771
     1.6808   1.9766   2.1153   2.2625   2.5288   2.6863   2.7809   2.9030
     3.0010   3.0281   3.0970   3.1430   3.1655   3.3726   3.4745   3.8801
     4.0277   4.1123   4.2479   4.4083   4.5459   4.6371   4.7012   4.7347
     4.8295   5.0587   5.1910   5.4270   6.9190   8.3280   8.8183   9.0141
     9.1418   9.1821   9.2343   9.2400   9.2669   9.3497   9.5793  10.0313
    10.6174  10.9435

          k = 0.1250-0.5000 0.0000 ( 28202 PWs)   bands (ev):

   -50.4969 -50.4539 -50.3811 -26.9740 -26.9158 -26.8958 -26.8485 -26.8463
   -26.8399 -26.8264 -26.7887 -26.7785 -19.9670 -19.8976 -18.9163 -18.8633
   -11.3467 -11.2041 -10.9524 -10.5887 -10.4280 -10.3347 -10.2772 -10.2647
   -10.1613  -9.9810  -5.3301  -5.2509  -5.0329  -4.9767  -4.9058  -4.9005
    -4.3646  -4.2308  -4.1830  -4.0147  -3.9838  -3.9550   1.2331   1.3545
     1.4559   1.8794   2.0940   2.1111   2.5615   2.6524   2.6963   2.7968
     2.8797   3.0126   3.0227   3.0535   3.0787   3.2943   3.4024   3.8563
     3.9462   4.2148   4.2366   4.3585   4.6261   4.6598   4.6652   4.6709
     4.6863   4.9795   5.1638   5.4982   7.8403   7.9983   8.3577   8.8532
     9.2814   9.2844   9.4109   9.4150   9.4615   9.5233   9.7265  10.4561
    10.7049  10.7279

          k = 0.1250-0.3750 0.0000 ( 28238 PWs)   bands (ev):

   -50.4970 -50.4541 -50.3813 -26.9645 -26.9162 -26.8867 -26.8491 -26.8403
   -26.8369 -26.8268 -26.7891 -26.7790 -19.9802 -19.9118 -18.9340 -18.8781
   -11.3299 -11.1969 -11.0072 -10.6300 -10.4667 -10.3406 -10.3238 -10.2671
   -10.1370  -9.9565  -5.3124  -5.2445  -5.1157  -5.0179  -4.8932  -4.8024
    -4.3182  -4.2802  -4.1846  -4.1158  -3.9308  -3.8715   1.4727   1.5771
     1.6808   1.9766   2.1153   2.2625   2.5288   2.6863   2.7809   2.9030
     3.0010   3.0281   3.0970   3.1430   3.1655   3.3726   3.4745   3.8801
     4.0277   4.1123   4.2479   4.4083   4.5459   4.6371   4.7012   4.7347
     4.8295   5.0587   5.1910   5.4270   6.9190   8.3280   8.8183   9.0141
     9.1418   9.1821   9.2343   9.2400   9.2669   9.3497   9.5793  10.0313
    10.6174  10.9436

          k = 0.1250-0.2500 0.0000 ( 28223 PWs)   bands (ev):

   -50.4975 -50.4545 -50.3818 -26.9415 -26.9173 -26.8646 -26.8505 -26.8413
   -26.8280 -26.8141 -26.7901 -26.7803 -20.0117 -19.9456 -18.9763 -18.9131
   -11.3676 -11.2200 -11.1161 -10.7060 -10.5380 -10.4214 -10.3459 -10.2388
   -10.0704  -9.8885  -5.2705  -5.2289  -5.1560  -5.0762  -4.8478  -4.7700
    -4.3018  -4.2230  -4.2074  -4.1773  -3.8810  -3.8482   1.8451   2.0200
     2.1954   2.3056   2.4503   2.6071   2.6328   2.7774   2.8691   3.0062
     3.2152   3.2689   3.2838   3.3837   3.3918   3.5733   3.6642   3.9122
     4.0638   4.2654   4.3634   4.4691   4.5691   4.5823   4.7098   4.9099
     5.0774   5.1114   5.1553   5.2531   6.2096   8.2581   8.5030   8.6374
     8.6599   8.6926   8.7704   8.9249   9.2050   9.3056   9.4911  10.4832
    10.5551  10.8934

          k = 0.1250-0.1250 0.0000 ( 28205 PWs)   bands (ev):

   -50.4980 -50.4550 -50.3822 -26.9186 -26.9180 -26.8520 -26.8424 -26.8420
   -26.8292 -26.7914 -26.7909 -26.7815 -20.0428 -19.9790 -19.0178 -18.9474
   -11.4900 -11.3415 -11.1772 -10.7448 -10.5792 -10.4641 -10.3412 -10.1939
    -9.9961  -9.8108  -5.2214  -5.1976  -5.1189  -5.0480  -4.8915  -4.8256
    -4.2363  -4.2023  -4.1928  -4.1240  -3.9262  -3.9068   1.9687   2.4119
     2.6296   2.7141   2.7512   2.8542   2.8616   2.9240   3.0669   3.2059
     3.3189   3.4206   3.5254   3.7177   3.7201   3.8602   3.8947   4.2033
     4.3207   4.3812   4.4796   4.5393   4.5556   4.6645   4.8168   4.8482
     4.9418   5.0493   5.2641   5.3351   5.8094   7.9611   8.0791   8.1644
     8.1904   8.1973   8.6474   8.7063   9.1105   9.1403   9.1936  10.2739
    10.4569  10.4916

          k = 0.2500-0.0000 0.0000 ( 28241 PWs)   bands (ev):

   -50.4977 -50.4547 -50.3819 -26.9420 -26.9077 -26.8650 -26.8511 -26.8321
   -26.8285 -26.8146 -26.7808 -26.7806 -20.0234 -19.9581 -18.9913 -18.9262
   -11.4396 -11.2898 -11.1837 -10.7049 -10.5403 -10.4229 -10.3490 -10.2333
   -10.0659  -9.8837  -5.2326  -5.2075  -4.9586  -4.9511  -4.8928  -4.8717
    -4.2252  -4.1536  -4.0814  -4.0504  -3.9680  -3.9609   1.8733   2.0844
     2.2290   2.3092   2.4574   2.6444   2.7595   2.8012   2.9322   3.1398
     3.2738   3.4178   3.4877   3.5001   3.6067   3.6894   3.7772   3.9687
     4.0642   4.2346   4.2988   4.4586   4.4601   4.4955   4.6201   4.7505
     5.1321   5.1586   5.2093   5.3286   6.0745   8.0672   8.4010   8.5474
     8.5562   8.6170   8.6857   8.8601   9.1585   9.2501   9.3672  10.2225
    10.3698  10.5587

          k = 0.2500 0.1250 0.0000 ( 28223 PWs)   bands (ev):

   -50.4975 -50.4545 -50.3818 -26.9415 -26.9173 -26.8646 -26.8505 -26.8413
   -26.8280 -26.8141 -26.7901 -26.7803 -20.0117 -19.9456 -18.9763 -18.9131
   -11.3676 -11.2200 -11.1161 -10.7060 -10.5380 -10.4214 -10.3459 -10.2388
   -10.0704  -9.8885  -5.2705  -5.2289  -5.1560  -5.0762  -4.8478  -4.7700
    -4.3018  -4.2230  -4.2074  -4.1773  -3.8810  -3.8482   1.8451   2.0200
     2.1954   2.3056   2.4503   2.6071   2.6328   2.7774   2.8691   3.0062
     3.2152   3.2689   3.2838   3.3837   3.3918   3.5733   3.6642   3.9122
     4.0638   4.2654   4.3634   4.4691   4.5691   4.5823   4.7098   4.9099
     5.0774   5.1114   5.1553   5.2531   6.2096   8.2581   8.5030   8.6374
     8.6599   8.6926   8.7704   8.9249   9.2050   9.3056   9.4911  10.4832
    10.5551  10.8932

          k = 0.2500 0.2500 0.0000 ( 28191 PWs)   bands (ev):

   -50.4971 -50.4541 -50.3813 -26.9408 -26.9397 -26.8639 -26.8630 -26.8492
   -26.8269 -26.8134 -26.8124 -26.7791 -19.9833 -19.9153 -18.9397 -18.8813
   -11.2072 -11.0713 -10.9587 -10.7007 -10.5290 -10.4019 -10.3242 -10.2439
   -10.0809  -9.8988  -5.3556  -5.3254  -5.2822  -5.2328  -4.8957  -4.8047
    -4.4974  -4.3395  -4.3234  -4.2140  -3.9167  -3.8461   1.7847   1.8532
     1.9793   2.3128   2.3173   2.4397   2.4492   2.5309   2.6213   2.7356
     2.9027   3.0248   3.1266   3.1547   3.2380   3.2815   3.3121   3.8388
     3.9895   4.2203   4.4209   4.6489   4.7475   4.9303   4.9704   5.0138
     5.0489   5.0704   5.1377   5.1664   6.6299   8.7220   8.7716   8.8197
     8.9443   9.0136   9.0699   9.0827   9.3645   9.4377   9.8284  10.7753
    10.8419  11.0279

          k = 0.2500 0.3750 0.0000 ( 28164 PWs)   bands (ev):

   -50.4966 -50.4536 -50.3809 -26.9631 -26.9390 -26.8854 -26.8623 -26.8480
   -26.8355 -26.8258 -26.8117 -26.7780 -19.9546 -19.8845 -18.9025 -18.8488
   -11.1118 -10.9860 -10.7994 -10.6437 -10.4704 -10.3518 -10.3009 -10.2401
   -10.0889  -9.9061  -5.4413  -5.3779  -5.3307  -5.2602  -5.0549  -4.9540
    -4.5568  -4.4853  -4.3015  -4.2910  -4.0393  -3.9744   1.4444   1.5569
     1.6175   2.0908   2.1269   2.2012   2.3138   2.4356   2.4549   2.5711
     2.6716   2.8105   3.0563   3.0686   3.1026   3.1162   3.3371   3.9100
     4.1246   4.2982   4.5682   4.7252   4.8001   4.8681   4.8877   4.9590
     4.9856   5.0825   5.1704   5.4092   7.3431   8.8231   9.1452   9.2114
     9.2533   9.3520   9.4156   9.4674   9.4981   9.6334   9.7078  10.3150
    10.9671  11.3138

          k = 0.2500-0.5000 0.0000 ( 28146 PWs)   bands (ev):

   -50.4964 -50.4535 -50.3807 -26.9724 -26.9385 -26.8944 -26.8618 -26.8474
   -26.8449 -26.8254 -26.8112 -26.7775 -19.9426 -19.8716 -18.8869 -18.8351
   -11.1069 -10.9702 -10.7308 -10.5983 -10.4246 -10.3100 -10.2997 -10.2380
   -10.0909  -9.9076  -5.4817  -5.3862  -5.2794  -5.2044  -5.1589  -5.1210
    -4.5483  -4.4864  -4.4236  -4.1667  -4.1489  -4.0842   1.2056   1.3324
     1.4145   2.0413   2.1008   2.2226   2.2495   2.3741   2.4920   2.5033
     2.5565   2.7076   3.0224   3.0539   3.0623   3.0668   3.3718   3.9693
     4.2943   4.3814   4.6677   4.6781   4.7516   4.7956   4.8386   4.9136
     4.9437   5.0628   5.1624   5.4986   8.2597   8.4117   8.8592   9.2078
     9.4322   9.4749   9.5422   9.5507   9.6172   9.6613   9.8246  10.7196
    10.9880  11.0205

          k = 0.2500-0.3750 0.0000 ( 28164 PWs)   bands (ev):

   -50.4966 -50.4536 -50.3809 -26.9631 -26.9390 -26.8854 -26.8623 -26.8480
   -26.8355 -26.8258 -26.8117 -26.7780 -19.9546 -19.8845 -18.9025 -18.8488
   -11.1118 -10.9860 -10.7994 -10.6437 -10.4704 -10.3518 -10.3009 -10.2401
   -10.0889  -9.9061  -5.4413  -5.3779  -5.3307  -5.2602  -5.0549  -4.9540
    -4.5568  -4.4853  -4.3015  -4.2910  -4.0393  -3.9744   1.4444   1.5569
     1.6175   2.0908   2.1269   2.2012   2.3138   2.4356   2.4549   2.5711
     2.6716   2.8105   3.0563   3.0686   3.1026   3.1162   3.3371   3.9100
     4.1246   4.2982   4.5682   4.7252   4.8001   4.8681   4.8877   4.9590
     4.9856   5.0825   5.1704   5.4092   7.3431   8.8231   9.1452   9.2114
     9.2533   9.3520   9.4156   9.4674   9.4981   9.6334   9.7078  10.3150
    10.9671  11.3770

          k = 0.2500-0.2500 0.0000 ( 28191 PWs)   bands (ev):

   -50.4971 -50.4541 -50.3813 -26.9408 -26.9397 -26.8639 -26.8630 -26.8492
   -26.8269 -26.8134 -26.8124 -26.7791 -19.9833 -19.9153 -18.9397 -18.8813
   -11.2072 -11.0713 -10.9587 -10.7007 -10.5290 -10.4019 -10.3242 -10.2439
   -10.0809  -9.8988  -5.3556  -5.3254  -5.2822  -5.2328  -4.8957  -4.8047
    -4.4974  -4.3395  -4.3234  -4.2140  -3.9167  -3.8461   1.7847   1.8532
     1.9793   2.3128   2.3173   2.4397   2.4492   2.5309   2.6213   2.7356
     2.9027   3.0248   3.1266   3.1547   3.2380   3.2815   3.3121   3.8388
     3.9895   4.2203   4.4209   4.6489   4.7475   4.9303   4.9704   5.0138
     5.0489   5.0704   5.1377   5.1664   6.6299   8.7220   8.7716   8.8197
     8.9443   9.0136   9.0699   9.0827   9.3645   9.4377   9.8284  10.7753
    10.8419  11.0279

          k = 0.2500-0.1250 0.0000 ( 28223 PWs)   bands (ev):

   -50.4975 -50.4545 -50.3818 -26.9415 -26.9173 -26.8646 -26.8505 -26.8413
   -26.8280 -26.8141 -26.7901 -26.7803 -20.0117 -19.9456 -18.9763 -18.9131
   -11.3676 -11.2200 -11.1161 -10.7060 -10.5380 -10.4214 -10.3459 -10.2388
   -10.0704  -9.8885  -5.2705  -5.2289  -5.1560  -5.0762  -4.8478  -4.7700
    -4.3018  -4.2230  -4.2074  -4.1773  -3.8810  -3.8482   1.8451   2.0200
     2.1954   2.3056   2.4503   2.6071   2.6328   2.7774   2.8691   3.0062
     3.2152   3.2689   3.2838   3.3837   3.3918   3.5733   3.6642   3.9122
     4.0638   4.2654   4.3634   4.4691   4.5691   4.5823   4.7098   4.9099
     5.0774   5.1114   5.1553   5.2531   6.2096   8.2581   8.5030   8.6374
     8.6599   8.6926   8.7704   8.9249   9.2050   9.3056   9.4911  10.4832
    10.5551  10.8935

          k = 0.3750-0.0000 0.0000 ( 28244 PWs)   bands (ev):

   -50.4972 -50.4543 -50.3815 -26.9651 -26.9068 -26.8872 -26.8496 -26.8375
   -26.8312 -26.8273 -26.7797 -26.7795 -19.9907 -19.9229 -18.9469 -18.8901
   -11.4158 -11.2804 -11.0901 -10.6284 -10.4718 -10.3512 -10.3112 -10.2787
   -10.1569  -9.9771  -5.2534  -5.2074  -4.9352  -4.8894  -4.8319  -4.8194
    -4.2239  -4.2020  -4.0796  -4.0083  -3.8954  -3.8857   1.4803   1.5852
     1.7104   1.7985   2.1126   2.2057   2.6634   2.7827   2.8974   2.9391
     2.9923   3.1536   3.2627   3.2719   3.3324   3.3660   3.5264   3.7698
     3.9375   3.9769   4.1818   4.3667   4.5022   4.5239   4.6134   4.6568
     4.9331   5.1302   5.2304   5.4403   6.7790   8.1238   8.6961   8.9957
     8.9998   9.1409   9.1622   9.1776   9.1789   9.2900   9.5343   9.9101
    10.3127  10.5784

          k = 0.3750 0.1250 0.0000 ( 28238 PWs)   bands (ev):

   -50.4970 -50.4541 -50.3813 -26.9645 -26.9162 -26.8867 -26.8491 -26.8403
   -26.8369 -26.8268 -26.7891 -26.7790 -19.9802 -19.9118 -18.9340 -18.8781
   -11.3299 -11.1969 -11.0072 -10.6300 -10.4667 -10.3406 -10.3238 -10.2671
   -10.1370  -9.9565  -5.3124  -5.2445  -5.1157  -5.0179  -4.8932  -4.8024
    -4.3182  -4.2802  -4.1846  -4.1158  -3.9308  -3.8715   1.4727   1.5771
     1.6808   1.9766   2.1153   2.2625   2.5288   2.6863   2.7809   2.9030
     3.0010   3.0281   3.0970   3.1430   3.1655   3.3726   3.4745   3.8801
     4.0277   4.1123   4.2479   4.4083   4.5459   4.6371   4.7012   4.7347
     4.8295   5.0587   5.1910   5.4270   6.9190   8.3280   8.8183   9.0141
     9.1418   9.1821   9.2343   9.2400   9.2669   9.3497   9.5793  10.0313
    10.6174  10.9436

          k = 0.3750 0.2500 0.0000 ( 28164 PWs)   bands (ev):

   -50.4966 -50.4536 -50.3809 -26.9631 -26.9390 -26.8854 -26.8623 -26.8480
   -26.8355 -26.8258 -26.8117 -26.7780 -19.9546 -19.8845 -18.9025 -18.8488
   -11.1118 -10.9860 -10.7994 -10.6437 -10.4704 -10.3518 -10.3009 -10.2401
   -10.0889  -9.9061  -5.4413  -5.3779  -5.3307  -5.2602  -5.0549  -4.9540
    -4.5568  -4.4853  -4.3015  -4.2910  -4.0393  -3.9744   1.4444   1.5569
     1.6175   2.0908   2.1269   2.2012   2.3138   2.4356   2.4549   2.5711
     2.6716   2.8105   3.0563   3.0686   3.1026   3.1162   3.3371   3.9100
     4.1246   4.2982   4.5682   4.7252   4.8001   4.8681   4.8877   4.9590
     4.9856   5.0825   5.1704   5.4092   7.3431   8.8231   9.1452   9.2114
     9.2533   9.3520   9.4156   9.4674   9.4981   9.6334   9.7078  10.3150
    10.9671  11.3771

          k = 0.3750 0.3750 0.0000 ( 28131 PWs)   bands (ev):

   -50.4961 -50.4532 -50.3804 -26.9619 -26.9613 -26.8843 -26.8839 -26.8468
   -26.8344 -26.8339 -26.8248 -26.7769 -19.9287 -19.8569 -18.8705 -18.8190
   -10.8843 -10.7666 -10.6546 -10.5806 -10.4775 -10.3338 -10.2929 -10.2246
   -10.0429  -9.8560  -5.5410  -5.5333  -5.4430  -5.4257  -5.2746  -5.1872
    -4.7328  -4.6147  -4.5231  -4.4066  -4.1683  -4.0857   1.2939   1.4187
     1.4825   1.7281   1.8625   1.8685   1.9351   2.1574   2.2073   2.6934
     2.7570   2.8771   2.9053   2.9949   3.0575   3.1753   3.2351   3.9901
     4.3167   4.5841   4.8014   4.8513   4.9428   4.9859   5.1157   5.1857
     5.2044   5.2564   5.3618   5.4389   8.0509   9.3012   9.3303   9.4852
     9.5224   9.5396   9.6223   9.7605   9.7639   9.7983  10.1753  10.3880
    10.6789  11.1472

          k = 0.3750-0.5000 0.0000 ( 28176 PWs)   bands (ev):

   -50.4960 -50.4530 -50.3802 -26.9709 -26.9610 -26.8931 -26.8835 -26.8463
   -26.8434 -26.8336 -26.8244 -26.7765 -19.9179 -19.8453 -18.8571 -18.8066
   -10.8126 -10.6894 -10.6214 -10.4932 -10.4421 -10.3199 -10.3083 -10.2306
   -10.0258  -9.8359  -5.5878  -5.5440  -5.5204  -5.4056  -5.3856  -5.3614
    -4.7248  -4.7013  -4.6624  -4.3613  -4.3341  -4.0906   1.1098   1.2407
     1.3225   1.6469   1.7188   1.7875   1.8535   2.1598   2.1645   2.7097
     2.7589   2.8262   2.9766   2.9910   3.0300   3.1091   3.2988   4.0219
     4.3884   4.8082   4.8562   4.9545   4.9738   5.0789   5.1109   5.2032
     5.3031   5.3107   5.4472   5.5050   8.9458   9.0838   9.3561   9.5278
     9.5925   9.6519   9.7210   9.7714   9.8365   9.9062   9.9295  10.8508
    10.8642  11.1697

          k = 0.3750-0.3750 0.0000 ( 28131 PWs)   bands (ev):

   -50.4961 -50.4532 -50.3804 -26.9619 -26.9613 -26.8843 -26.8839 -26.8468
   -26.8344 -26.8339 -26.8248 -26.7769 -19.9287 -19.8569 -18.8705 -18.8190
   -10.8843 -10.7666 -10.6546 -10.5806 -10.4775 -10.3338 -10.2929 -10.2246
   -10.0429  -9.8560  -5.5410  -5.5333  -5.4430  -5.4257  -5.2746  -5.1872
    -4.7328  -4.6147  -4.5231  -4.4066  -4.1683  -4.0857   1.2939   1.4187
     1.4825   1.7281   1.8625   1.8685   1.9351   2.1574   2.2073   2.6934
     2.7570   2.8771   2.9053   2.9949   3.0575   3.1753   3.2351   3.9901
     4.3167   4.5841   4.8014   4.8513   4.9428   4.9859   5.1157   5.1857
     5.2044   5.2564   5.3618   5.4389   8.0509   9.3012   9.3303   9.4852
     9.5224   9.5396   9.6223   9.7605   9.7639   9.7983  10.1753  10.3880
    10.6789  11.1472

          k = 0.3750-0.2500 0.0000 ( 28164 PWs)   bands (ev):

   -50.4966 -50.4536 -50.3809 -26.9631 -26.9390 -26.8854 -26.8623 -26.8480
   -26.8355 -26.8258 -26.8117 -26.7780 -19.9546 -19.8845 -18.9025 -18.8488
   -11.1118 -10.9860 -10.7994 -10.6437 -10.4704 -10.3518 -10.3009 -10.2401
   -10.0889  -9.9061  -5.4413  -5.3779  -5.3307  -5.2602  -5.0549  -4.9540
    -4.5568  -4.4853  -4.3015  -4.2910  -4.0393  -3.9744   1.4444   1.5569
     1.6175   2.0908   2.1269   2.2012   2.3138   2.4356   2.4549   2.5711
     2.6716   2.8105   3.0563   3.0686   3.1026   3.1162   3.3371   3.9100
     4.1246   4.2982   4.5682   4.7252   4.8001   4.8681   4.8877   4.9590
     4.9856   5.0825   5.1704   5.4092   7.3431   8.8231   9.1452   9.2114
     9.2533   9.3520   9.4156   9.4674   9.4981   9.6334   9.7078  10.3150
    10.9671  11.3772

          k = 0.3750-0.1250 0.0000 ( 28238 PWs)   bands (ev):

   -50.4970 -50.4541 -50.3813 -26.9645 -26.9162 -26.8867 -26.8491 -26.8403
   -26.8369 -26.8268 -26.7891 -26.7790 -19.9802 -19.9118 -18.9340 -18.8781
   -11.3299 -11.1969 -11.0072 -10.6300 -10.4667 -10.3406 -10.3238 -10.2671
   -10.1370  -9.9565  -5.3124  -5.2445  -5.1157  -5.0179  -4.8932  -4.8024
    -4.3182  -4.2802  -4.1846  -4.1158  -3.9308  -3.8715   1.4727   1.5771
     1.6808   1.9766   2.1153   2.2625   2.5288   2.6863   2.7809   2.9030
     3.0010   3.0281   3.0970   3.1430   3.1655   3.3726   3.4745   3.8801
     4.0277   4.1123   4.2479   4.4083   4.5459   4.6371   4.7012   4.7347
     4.8295   5.0587   5.1910   5.4270   6.9190   8.3280   8.8183   9.0141
     9.1418   9.1821   9.2343   9.2400   9.2669   9.3497   9.5793  10.0313
    10.6174  10.9436

          k =-0.5000 0.0000 0.0000 ( 28222 PWs)   bands (ev):

   -50.4970 -50.4541 -50.3813 -26.9746 -26.9064 -26.8963 -26.8490 -26.8469
   -26.8308 -26.8268 -26.7794 -26.7789 -19.9771 -19.9083 -18.9283 -18.8748
   -11.4379 -11.2936 -11.0395 -10.5887 -10.4320 -10.3501 -10.2966 -10.2460
   -10.1905 -10.0113  -5.2598  -5.2030  -4.9287  -4.8632  -4.8060  -4.7987
    -4.2603  -4.1611  -4.1193  -3.9771  -3.8621  -3.8503   1.2411   1.3612
     1.4757   1.6252   2.0031   2.0882   2.6450   2.7257   2.8085   2.8974
     2.9344   3.0449   3.1093   3.1880   3.2273   3.3487   3.4658   3.6356
     3.7826   3.9454   4.0770   4.4377   4.4667   4.5940   4.6657   4.6753
     4.8574   5.0491   5.1848   5.5006   7.7013   7.8612   8.1480   8.7151
     9.1824   9.2392   9.3797   9.3845   9.3924   9.4837   9.6872  10.2072
    10.4474  10.7118

          k =-0.5000 0.1250 0.0000 ( 28202 PWs)   bands (ev):

   -50.4969 -50.4539 -50.3811 -26.9740 -26.9158 -26.8958 -26.8485 -26.8463
   -26.8399 -26.8264 -26.7887 -26.7785 -19.9670 -19.8976 -18.9163 -18.8633
   -11.3467 -11.2041 -10.9524 -10.5887 -10.4280 -10.3347 -10.2772 -10.2647
   -10.1613  -9.9810  -5.3301  -5.2509  -5.0329  -4.9767  -4.9058  -4.9005
    -4.3646  -4.2308  -4.1830  -4.0147  -3.9838  -3.9550   1.2331   1.3545
     1.4559   1.8794   2.0940   2.1111   2.5615   2.6524   2.6963   2.7968
     2.8797   3.0126   3.0227   3.0535   3.0787   3.2943   3.4024   3.8563
     3.9462   4.2148   4.2366   4.3585   4.6261   4.6598   4.6652   4.6709
     4.6863   4.9795   5.1638   5.4982   7.8403   7.9983   8.3577   8.8532
     9.2814   9.2844   9.4109   9.4150   9.4615   9.5233   9.7265  10.4561
    10.7048  10.7279

          k =-0.5000 0.2500 0.0000 ( 28146 PWs)   bands (ev):

   -50.4964 -50.4535 -50.3807 -26.9724 -26.9385 -26.8944 -26.8618 -26.8474
   -26.8449 -26.8254 -26.8112 -26.7775 -19.9426 -19.8716 -18.8869 -18.8351
   -11.1069 -10.9702 -10.7308 -10.5983 -10.4246 -10.3100 -10.2997 -10.2380
   -10.0909  -9.9076  -5.4817  -5.3862  -5.2794  -5.2044  -5.1589  -5.1210
    -4.5483  -4.4864  -4.4236  -4.1667  -4.1489  -4.0842   1.2056   1.3324
     1.4145   2.0413   2.1008   2.2226   2.2495   2.3741   2.4920   2.5033
     2.5565   2.7076   3.0224   3.0539   3.0623   3.0668   3.3718   3.9693
     4.2943   4.3814   4.6677   4.6781   4.7516   4.7956   4.8386   4.9136
     4.9437   5.0628   5.1624   5.4986   8.2597   8.4117   8.8592   9.2078
     9.4322   9.4749   9.5422   9.5507   9.6172   9.6613   9.8246  10.7196
    10.9880  11.0205

          k =-0.5000 0.3750 0.0000 ( 28176 PWs)   bands (ev):

   -50.4960 -50.4530 -50.3802 -26.9709 -26.9610 -26.8931 -26.8835 -26.8463
   -26.8434 -26.8336 -26.8244 -26.7765 -19.9179 -19.8453 -18.8571 -18.8066
   -10.8126 -10.6894 -10.6214 -10.4932 -10.4421 -10.3199 -10.3083 -10.2306
   -10.0258  -9.8359  -5.5878  -5.5440  -5.5204  -5.4056  -5.3856  -5.3614
    -4.7248  -4.7013  -4.6624  -4.3613  -4.3341  -4.0906   1.1098   1.2407
     1.3225   1.6469   1.7188   1.7875   1.8535   2.1598   2.1645   2.7097
     2.7589   2.8262   2.9766   2.9910   3.0300   3.1091   3.2988   4.0219
     4.3884   4.8082   4.8562   4.9545   4.9738   5.0789   5.1109   5.2032
     5.3031   5.3107   5.4472   5.5050   8.9458   9.0838   9.3561   9.5278
     9.5925   9.6519   9.7210   9.7714   9.8365   9.9062   9.9295  10.8508
    10.8642  11.1690

          k =-0.5000-0.5000 0.0000 ( 28120 PWs)   bands (ev):

   -50.4958 -50.4528 -50.3800 -26.9703 -26.9703 -26.8925 -26.8925 -26.8459
   -26.8428 -26.8428 -26.8240 -26.7761 -19.9076 -19.8344 -18.8447 -18.7946
   -10.6349 -10.6349 -10.5235 -10.4557 -10.4557 -10.3040 -10.3040 -10.2702
   -10.0052  -9.8076  -5.6192  -5.6192  -5.5829  -5.5063  -5.5063  -5.4398
    -4.8190  -4.8190  -4.6719  -4.4368  -4.4368  -4.0867   0.9884   1.1210
     1.2076   1.4832   1.6046   1.6274   1.6910   2.1389   2.1690   2.7903
     2.7903   2.8472   2.9516   2.9516   2.9729   3.2434   3.2434   4.0154
     4.3798   4.9742   4.9742   5.1082   5.1082   5.2288   5.2408   5.2408
     5.4472   5.4998   5.4998   5.5819   9.5328   9.5328   9.6723   9.7024
     9.7024   9.8846   9.8858   9.8858  10.0003  10.0159  10.0159  10.0749
    10.2949  11.2781

     the Fermi energy is     5.5986 ev

!    total energy              =    -912.66579109 Ry
     Harris-Foulkes estimate   =    -912.66578902 Ry
     estimated scf accuracy    <          4.2E-10 Ry

     The total energy is the sum of the following terms:

     one-electron contribution =   -4595.53379746 Ry
     hartree contribution      =    2355.51584006 Ry
     xc contribution           =    -188.13923299 Ry
     ewald contribution        =    1515.69903470 Ry
     electric field correction =      -0.20743300 Ry
     smearing contrib. (-TS)   =      -0.00020241 Ry

     convergence has been achieved in  45 iterations

     Forces acting on atoms (cartesian axes, Ry/au):

     atom    1 type  1   force =    -0.00000000    0.00000001   -0.00281213
     atom    2 type  3   force =    -0.00000002    0.00000000    0.00201096
     atom    3 type  2   force =    -0.00000002    0.00000000   -0.00241562
     atom    4 type  3   force =    -0.00000001   -0.00000002    0.00022505
     atom    5 type  3   force =     0.00000003    0.00000002    0.00022511
     atom    6 type  1   force =    -0.00000001    0.00000002   -0.00064827
     atom    7 type  3   force =    -0.00000001   -0.00000005   -0.00059713
     atom    8 type  2   force =    -0.00000001    0.00000006    0.00484895
     atom    9 type  3   force =     0.00000003   -0.00000008   -0.00149254
     atom   10 type  3   force =     0.00000004   -0.00000003   -0.00149256
     atom   11 type  1   force =    -0.00000001    0.00000001    0.00427259
     atom   12 type  3   force =    -0.00000002    0.00000005   -0.00664463
     atom   13 type  2   force =     0.00000001   -0.00000001    0.00988135
     atom   14 type  3   force =    -0.00000001   -0.00000001   -0.00295916
     atom   15 type  3   force =    -0.00000001    0.00000000   -0.00295913
     atom   16 type  1   force =    -0.00000000    0.00000000    0.00720539
     atom   17 type  3   force =     0.00000001    0.00000002   -0.00664822

     Total force =     0.017897     Total SCF correction =     0.000053


     Computing stress (Cartesian axis) and pressure

          total   stress  (Ry/bohr**3)                   (kbar)     P=   -1.97
   0.00000400   0.00000000   0.00000000          0.59      0.00      0.00
   0.00000000   0.00000400   0.00000000          0.00      0.59      0.00
   0.00000000   0.00000000  -0.00004816          0.00      0.00     -7.08


     BFGS Geometry Optimization

     number of scf cycles    =   1
     number of bfgs steps    =   0

     enthalpy new            =    -912.6657910896 Ry

     new trust radius        =       0.0098813530 bohr
     new conv_thr            =       0.0000000010 Ry

     new unit-cell volume =   2333.83707 a.u.^3 (   345.83897 Ang^3 )
     density =      4.09520 g/cm^3

CELL_PARAMETERS (angstrom)
   3.957829664   0.000000005   0.000000000
   0.000000005   3.957829654   0.000000000
   0.000000000   0.000000000  22.078000000

ATOMIC_POSITIONS (crystal)
Ba       0.000000001   0.000000005   0.236027984
O        0.500000003   0.499999990   0.230986610
Ti       0.499999996   0.500000022   0.319973994
O        0.499999998  -0.000000018   0.319268899
O        0.000000007   0.499999993   0.319268899
Ba      -0.000000006   0.000000042   0.412681486
O        0.500000005   0.499999959   0.409671226
Ti       0.499999962   0.500000297   0.503620461
O        0.500000017  -0.000000198   0.501205511
O        0.000000032   0.499999900   0.501205515
Ba      -0.000000008   0.000000055   0.592400507
O        0.500000002   0.499999963   0.590290527
Ti       0.500000000   0.500000031   0.687293684
O        0.499999999  -0.000000022   0.684323035
O       -0.000000002   0.499999990   0.684323035
Ba      -0.000000001   0.000000009   0.772863169
O        0.500000001   0.499999985   0.770720739



     Writing output data file BaTiO3_7_Ba-O_P4mm.save/
     NEW-OLD atomic charge density approx. for the potential

     Adding external electric field

     Computed dipole along edir(3) :
        Dipole                4.5609 Ry au,         11.5927 Debye
        Dipole field          0.0246 Ry au,

        E field amplitude [Ha a.u.]:  3.5000E-02
        Potential amp.        0.8604 Ry
        Total length         41.1999 bohr

     extrapolated charge  136.02720, renormalised to  136.00000

     total cpu time spent up to now is      155.3 secs

     Self-consistent Calculation

     iteration #  1     ecut=    80.00 Ry     beta= 0.30
     Davidson diagonalization with overlap
     ethr =  1.00E-06,  avg # of iterations =  8.6

     Adding external electric field

     Computed dipole along edir(3) :
        Dipole                5.4599 Ry au,         13.8776 Debye
        Dipole field          0.0294 Ry au,

        E field amplitude [Ha a.u.]:  3.5000E-02
        Potential amp.        0.4616 Ry
        Total length         41.1999 bohr


     total cpu time spent up to now is      160.3 secs

     total energy              =    -912.61757827 Ry
     Harris-Foulkes estimate   =    -911.77909395 Ry
     estimated scf accuracy    <       0.09753165 Ry

     iteration #  2     ecut=    80.00 Ry     beta= 0.30
     Davidson diagonalization with overlap
     ethr =  7.17E-05,  avg # of iterations = 10.2

     Adding external electric field

     Computed dipole along edir(3) :
        Dipole                4.8136 Ry au,         12.2350 Debye
        Dipole field          0.0259 Ry au,

        E field amplitude [Ha a.u.]:  3.5000E-02
        Potential amp.        0.7483 Ry
        Total length         41.1999 bohr


     total cpu time spent up to now is      164.4 secs

     total energy              =    -912.52475852 Ry
     Harris-Foulkes estimate   =    -912.73394171 Ry
     estimated scf accuracy    <       2.56815869 Ry

     iteration #  3     ecut=    80.00 Ry     beta= 0.30
     Davidson diagonalization with overlap
     ethr =  7.17E-05,  avg # of iterations =  8.6

     Adding external electric field

     Computed dipole along edir(3) :
        Dipole                4.7865 Ry au,         12.1661 Debye
        Dipole field          0.0258 Ry au,

        E field amplitude [Ha a.u.]:  3.5000E-02
        Potential amp.        0.7603 Ry
        Total length         41.1999 bohr


     total cpu time spent up to now is      168.3 secs

     total energy              =    -912.66782219 Ry
     Harris-Foulkes estimate   =    -912.67811132 Ry
     estimated scf accuracy    <       0.06174666 Ry

     iteration #  4     ecut=    80.00 Ry     beta= 0.30
     Davidson diagonalization with overlap
     ethr =  4.54E-05,  avg # of iterations =  5.8

     Adding external electric field

     Computed dipole along edir(3) :
        Dipole                4.7171 Ry au,         11.9897 Debye
        Dipole field          0.0254 Ry au,

        E field amplitude [Ha a.u.]:  3.5000E-02
        Potential amp.        0.7911 Ry
        Total length         41.1999 bohr


     total cpu time spent up to now is      170.7 secs

     total energy              =    -912.66746877 Ry
     Harris-Foulkes estimate   =    -912.66865568 Ry
     estimated scf accuracy    <       0.02533138 Ry

     iteration #  5     ecut=    80.00 Ry     beta= 0.30
     Davidson diagonalization with overlap
     ethr =  1.86E-05,  avg # of iterations =  6.0

     Adding external electric field

     Computed dipole along edir(3) :
        Dipole                4.6883 Ry au,         11.9164 Debye
        Dipole field          0.0252 Ry au,

        E field amplitude [Ha a.u.]:  3.5000E-02
        Potential amp.        0.8039 Ry
        Total length         41.1999 bohr


     total cpu time spent up to now is      173.5 secs

     total energy              =    -912.66688918 Ry
     Harris-Foulkes estimate   =    -912.66732315 Ry
     estimated scf accuracy    <       0.01589969 Ry

     iteration #  6     ecut=    80.00 Ry     beta= 0.30
     Davidson diagonalization with overlap
     ethr =  1.17E-05,  avg # of iterations =  4.0

     Adding external electric field

     Computed dipole along edir(3) :
        Dipole                4.6497 Ry au,         11.8184 Debye
        Dipole field          0.0250 Ry au,

        E field amplitude [Ha a.u.]:  3.5000E-02
        Potential amp.        0.8210 Ry
        Total length         41.1999 bohr


     total cpu time spent up to now is      175.8 secs

     total energy              =    -912.66629720 Ry
     Harris-Foulkes estimate   =    -912.66624711 Ry
     estimated scf accuracy    <       0.01081878 Ry

     iteration #  7     ecut=    80.00 Ry     beta= 0.30
     Davidson diagonalization with overlap
     ethr =  7.95E-06,  avg # of iterations =  5.7

     Adding external electric field

     Computed dipole along edir(3) :
        Dipole                4.6335 Ry au,         11.7772 Debye
        Dipole field          0.0249 Ry au,

        E field amplitude [Ha a.u.]:  3.5000E-02
        Potential amp.        0.8282 Ry
        Total length         41.1999 bohr


     total cpu time spent up to now is      178.6 secs

     total energy              =    -912.66616272 Ry
     Harris-Foulkes estimate   =    -912.66606028 Ry
     estimated scf accuracy    <       0.00594323 Ry

     iteration #  8     ecut=    80.00 Ry     beta= 0.30
     Davidson diagonalization with overlap
     ethr =  4.37E-06,  avg # of iterations =  1.7

     Adding external electric field

     Computed dipole along edir(3) :
        Dipole                4.6185 Ry au,         11.7391 Debye
        Dipole field          0.0249 Ry au,

        E field amplitude [Ha a.u.]:  3.5000E-02
        Potential amp.        0.8349 Ry
        Total length         41.1999 bohr


     total cpu time spent up to now is      180.4 secs

     total energy              =    -912.66603842 Ry
     Harris-Foulkes estimate   =    -912.66589018 Ry
     estimated scf accuracy    <       0.00347403 Ry

     iteration #  9     ecut=    80.00 Ry     beta= 0.30
     Davidson diagonalization with overlap
     ethr =  2.55E-06,  avg # of iterations =  5.1

     Adding external electric field

     Computed dipole along edir(3) :
        Dipole                4.6082 Ry au,         11.7129 Debye
        Dipole field          0.0248 Ry au,

        E field amplitude [Ha a.u.]:  3.5000E-02
        Potential amp.        0.8394 Ry
        Total length         41.1999 bohr


     total cpu time spent up to now is      183.2 secs

     total energy              =    -912.66600405 Ry
     Harris-Foulkes estimate   =    -912.66586067 Ry
     estimated scf accuracy    <       0.00131338 Ry

     iteration # 10     ecut=    80.00 Ry     beta= 0.30
[...]
     8.9378   9.0363   9.1095   9.1394   9.4145   9.4873   9.8807  10.6481
    10.9047  11.0873

          k = 0.2500 0.3750 0.0000 ( 28160 PWs)   bands (ev):

   -50.4313 -50.3928 -50.3705 -26.8827 -26.8592 -26.8590 -26.8397 -26.8351
   -26.8013 -26.7783 -26.7593 -26.7315 -20.0988 -19.8164 -18.8673 -18.7557
   -11.0331 -10.9788 -10.7388 -10.5411 -10.5000 -10.2944 -10.2556 -10.1852
   -10.1291  -9.8302  -5.5129  -5.4581  -5.3662  -5.1934  -5.1908  -4.8842
    -4.5052  -4.4242  -4.2486  -4.2220  -3.9801  -3.9036   1.5322   1.5468
     1.6935   2.1497   2.1947   2.2164   2.3731   2.4404   2.5146   2.5704
     2.7337   2.8571   2.9988   3.1140   3.1681   3.1753   3.3837   3.8639
     4.1424   4.3692   4.6488   4.7155   4.7745   4.8662   4.9566   5.0086
     5.0505   5.1488   5.2099   5.4813   7.4100   8.8866   9.1801   9.2987
     9.3146   9.3358   9.4407   9.5255   9.5532   9.6846   9.7745  10.3692
    10.8591  11.3708

          k = 0.2500-0.5000 0.0000 ( 28142 PWs)   bands (ev):

   -50.4311 -50.3926 -50.3703 -26.8920 -26.8685 -26.8585 -26.8392 -26.8346
   -26.8104 -26.7778 -26.7588 -26.7311 -20.0869 -19.8036 -18.8523 -18.7415
   -11.0332 -10.9541 -10.6743 -10.4953 -10.4554 -10.2896 -10.2145 -10.1811
   -10.1341  -9.8318  -5.5075  -5.4184  -5.4055  -5.3429  -5.0896  -5.0520
    -4.4847  -4.4341  -4.3765  -4.0974  -4.0794  -4.0229   1.2989   1.3141
     1.4955   2.0904   2.1541   2.2595   2.3494   2.3548   2.4772   2.5723
     2.6074   2.7593   2.9572   3.0795   3.1324   3.1407   3.4151   3.9368
     4.3105   4.4163   4.6853   4.7168   4.7644   4.8658   4.8906   4.9102
     5.0126   5.1378   5.1933   5.5678   8.3271   8.4784   8.9213   9.2387
     9.5139   9.5308   9.5488   9.5920   9.6415   9.7278   9.8755  10.7833
    10.9115  11.0415

          k = 0.2500-0.3750 0.0000 ( 28160 PWs)   bands (ev):

   -50.4313 -50.3928 -50.3705 -26.8827 -26.8592 -26.8590 -26.8397 -26.8351
   -26.8013 -26.7783 -26.7593 -26.7315 -20.0988 -19.8164 -18.8673 -18.7557
   -11.0331 -10.9788 -10.7388 -10.5411 -10.5000 -10.2944 -10.2556 -10.1852
   -10.1291  -9.8302  -5.5129  -5.4581  -5.3662  -5.1934  -5.1908  -4.8842
    -4.5052  -4.4242  -4.2486  -4.2220  -3.9801  -3.9036   1.5322   1.5468
     1.6935   2.1497   2.1947   2.2164   2.3731   2.4404   2.5146   2.5704
     2.7337   2.8571   2.9988   3.1140   3.1681   3.1753   3.3837   3.8639
     4.1424   4.3692   4.6488   4.7155   4.7745   4.8662   4.9566   5.0086
     5.0505   5.1488   5.2099   5.4813   7.4100   8.8866   9.1801   9.2987
     9.3146   9.3358   9.4407   9.5255   9.5532   9.6846   9.7745  10.3692
    10.8591  11.3709

          k = 0.2500-0.2500 0.0000 ( 28191 PWs)   bands (ev):

   -50.4318 -50.3933 -50.3709 -26.8607 -26.8597 -26.8410 -26.8369 -26.8358
   -26.7798 -26.7789 -26.7605 -26.7326 -20.1271 -19.8470 -18.9031 -18.7896
   -11.1131 -11.0930 -10.8838 -10.5976 -10.5574 -10.3182 -10.3034 -10.1964
   -10.1200  -9.8228  -5.4641  -5.4136  -5.2829  -5.1634  -5.0306  -4.7338
    -4.4474  -4.2868  -4.2458  -4.1536  -3.8663  -3.7682   1.8452   1.9011
     2.0173   2.3866   2.4065   2.4140   2.4430   2.6106   2.6779   2.7581
     2.9498   3.0621   3.0937   3.2248   3.2736   3.3239   3.3752   3.7660
     4.0267   4.2961   4.5107   4.6322   4.7824   4.8830   4.9886   5.0462
     5.1013   5.1504   5.2192   5.2433   6.6968   8.7801   8.8366   8.9057
     8.9378   9.0363   9.1095   9.1394   9.4145   9.4873   9.8807  10.6481
    10.9047  11.0873

          k = 0.2500-0.1250 0.0000 ( 28222 PWs)   bands (ev):

   -50.4322 -50.3937 -50.3714 -26.8614 -26.8422 -26.8376 -26.8374 -26.8133
   -26.7805 -26.7617 -26.7572 -26.7338 -20.1551 -19.8772 -18.9384 -18.8228
   -11.2699 -11.2496 -11.0356 -10.6036 -10.5685 -10.3367 -10.3205 -10.1974
   -10.1098  -9.8123  -5.3678  -5.2939  -5.2004  -5.0064  -4.9831  -4.6982
    -4.2587  -4.1722  -4.1403  -4.0914  -3.8403  -3.7586   1.9023   2.0644
     2.2326   2.3689   2.4779   2.6294   2.7118   2.7930   2.9084   3.0656
     3.2169   3.2855   3.3260   3.4325   3.4522   3.5950   3.6687   3.9002
     4.1177   4.3160   4.4100   4.4934   4.6061   4.6367   4.7419   4.9102
     5.0895   5.1552   5.2382   5.3296   6.2767   8.3225   8.6012   8.6166
     8.7147   8.7507   8.8139   8.9504   9.2565   9.3562   9.5430  10.3968
    10.5996  10.9126

          k = 0.3750-0.0000 0.0000 ( 28244 PWs)   bands (ev):

   -50.4320 -50.3934 -50.3711 -26.8847 -26.8612 -26.8413 -26.8271 -26.8031
   -26.8028 -26.7609 -26.7472 -26.7330 -20.1344 -19.8547 -18.9107 -18.7981
   -11.3313 -11.2812 -11.0245 -10.5274 -10.4972 -10.3350 -10.2515 -10.2242
   -10.1782  -9.9019  -5.3470  -5.1832  -5.0762  -5.0256  -4.7605  -4.7497
    -4.1805  -4.1280  -4.0180  -3.9601  -3.8221  -3.8050   1.5615   1.5919
     1.7727   1.8381   2.1674   2.2340   2.7163   2.8496   2.9200   2.9492
     3.0577   3.1794   3.2194   3.2898   3.3566   3.4151   3.5892   3.8246
     3.9791   3.9984   4.2073   4.4180   4.5378   4.5423   4.6086   4.7112
     5.0102   5.1403   5.2793   5.5149   6.8459   8.1929   8.7282   9.0677
     9.1028   9.1042   9.2001   9.2284   9.2456   9.3300   9.5926   9.9678
    10.3145  10.6151

          k = 0.3750 0.1250 0.0000 ( 28238 PWs)   bands (ev):

   -50.4318 -50.3933 -50.3709 -26.8841 -26.8606 -26.8409 -26.8364 -26.8123
   -26.8026 -26.7604 -26.7563 -26.7326 -20.1240 -19.8435 -18.8981 -18.7858
   -11.2468 -11.1958 -10.9427 -10.5281 -10.4947 -10.3228 -10.2454 -10.2238
   -10.1641  -9.8811  -5.3791  -5.2552  -5.2403  -5.0304  -4.9484  -4.7315
    -4.2594  -4.2304  -4.1311  -4.0322  -3.8850  -3.7878   1.5570   1.5787
     1.7463   2.0125   2.1765   2.2916   2.5714   2.7205   2.8230   2.9625
     2.9996   3.0752   3.1103   3.1492   3.2459   3.4363   3.4506   3.8720
     4.0832   4.1458   4.3176   4.4092   4.5778   4.6721   4.7364   4.7564
     4.9100   5.0894   5.2265   5.5004   6.9859   8.3938   8.8500   9.1050
     9.1533   9.2210   9.2598   9.3078   9.3239   9.3931   9.6364  10.0858
    10.5772  10.9692

          k = 0.3750 0.2500 0.0000 ( 28160 PWs)   bands (ev):

   -50.4313 -50.3928 -50.3705 -26.8827 -26.8592 -26.8590 -26.8397 -26.8351
   -26.8013 -26.7783 -26.7593 -26.7315 -20.0988 -19.8164 -18.8673 -18.7557
   -11.0331 -10.9788 -10.7388 -10.5411 -10.5000 -10.2944 -10.2556 -10.1852
   -10.1291  -9.8302  -5.5129  -5.4581  -5.3662  -5.1934  -5.1908  -4.8842
    -4.5052  -4.4242  -4.2486  -4.2220  -3.9801  -3.9036   1.5322   1.5468
     1.6935   2.1497   2.1947   2.2164   2.3731   2.4404   2.5146   2.5704
     2.7337   2.8571   2.9988   3.1140   3.1681   3.1753   3.3837   3.8639
     4.1424   4.3692   4.6488   4.7155   4.7745   4.8662   4.9566   5.0086
     5.0505   5.1488   5.2099   5.4813   7.4100   8.8866   9.1801   9.2987
     9.3146   9.3358   9.4407   9.5255   9.5532   9.6846   9.7745  10.3692
    10.8591  11.3708

          k = 0.3750 0.3750 0.0000 ( 28127 PWs)   bands (ev):

   -50.4309 -50.3924 -50.3700 -26.8816 -26.8811 -26.8580 -26.8574 -26.8386
   -26.8002 -26.7998 -26.7582 -26.7305 -20.0732 -19.7889 -18.8361 -18.7252
   -10.8111 -10.7488 -10.5514 -10.5293 -10.5027 -10.2686 -10.2518 -10.1621
   -10.0930  -9.7797  -5.6701  -5.5640  -5.4627  -5.4078  -5.3565  -5.1181
    -4.6806  -4.5549  -4.4744  -4.3371  -4.1025  -4.0273   1.3819   1.4039
     1.5657   1.8299   1.8330   1.9085   2.0197   2.2140   2.2284   2.6799
     2.8034   2.8888   2.9173   3.0443   3.1088   3.2173   3.2975   3.9482
     4.3414   4.6257   4.8102   4.8631   4.9828   5.0249   5.1649   5.1748
     5.2568   5.3251   5.4428   5.5094   8.1178   9.3637   9.4008   9.5479
     9.5648   9.5749   9.6129   9.8044   9.8234   9.8485  10.2416  10.4566
    10.7358  11.0307

          k = 0.3750-0.5000 0.0000 ( 28172 PWs)   bands (ev):

   -50.4307 -50.3922 -50.3699 -26.8905 -26.8808 -26.8670 -26.8571 -26.8382
   -26.8090 -26.7995 -26.7578 -26.7301 -20.0625 -19.7774 -18.8230 -18.7124
   -10.7373 -10.6692 -10.5180 -10.4698 -10.4503 -10.2842 -10.2244 -10.1726
   -10.0775  -9.7595  -5.6770  -5.6568  -5.5115  -5.4969  -5.3363  -5.2947
    -4.6731  -4.6529  -4.6024  -4.2934  -4.2691  -4.0343   1.2017   1.2226
     1.4066   1.7488   1.7528   1.7605   1.9383   2.1835   2.2172   2.7203
     2.7854   2.8482   2.9420   3.0628   3.0783   3.1737   3.3550   3.9785
     4.4348   4.7964   4.8192   5.0016   5.0232   5.1286   5.1938   5.2480
     5.2801   5.3818   5.5337   5.5738   9.0134   9.1518   9.4163   9.5937
     9.6232   9.7215   9.7456   9.7769   9.8850   9.9674   9.9820  10.9125
    10.9255  11.0513

          k = 0.3750-0.3750 0.0000 ( 28127 PWs)   bands (ev):

   -50.4309 -50.3924 -50.3700 -26.8816 -26.8811 -26.8580 -26.8574 -26.8386
   -26.8002 -26.7998 -26.7582 -26.7305 -20.0732 -19.7889 -18.8361 -18.7252
   -10.8111 -10.7488 -10.5514 -10.5293 -10.5027 -10.2686 -10.2518 -10.1621
   -10.0930  -9.7797  -5.6701  -5.5640  -5.4627  -5.4078  -5.3565  -5.1181
    -4.6806  -4.5549  -4.4744  -4.3371  -4.1025  -4.0273   1.3819   1.4039
     1.5657   1.8299   1.8330   1.9085   2.0197   2.2140   2.2284   2.6799
     2.8034   2.8888   2.9173   3.0443   3.1088   3.2173   3.2975   3.9482
     4.3414   4.6257   4.8102   4.8631   4.9828   5.0249   5.1649   5.1748
     5.2568   5.3251   5.4428   5.5094   8.1178   9.3637   9.4008   9.5479
     9.5648   9.5749   9.6129   9.8044   9.8234   9.8485  10.2416  10.4566
    10.7358  11.0307

          k = 0.3750-0.2500 0.0000 ( 28160 PWs)   bands (ev):

   -50.4313 -50.3928 -50.3705 -26.8827 -26.8592 -26.8590 -26.8397 -26.8351
   -26.8013 -26.7783 -26.7593 -26.7315 -20.0988 -19.8164 -18.8673 -18.7557
   -11.0331 -10.9788 -10.7388 -10.5411 -10.5000 -10.2944 -10.2556 -10.1852
   -10.1291  -9.8302  -5.5129  -5.4581  -5.3662  -5.1934  -5.1908  -4.8842
    -4.5052  -4.4242  -4.2486  -4.2220  -3.9801  -3.9036   1.5322   1.5468
     1.6935   2.1497   2.1947   2.2164   2.3731   2.4404   2.5146   2.5704
     2.7337   2.8571   2.9988   3.1140   3.1681   3.1753   3.3837   3.8639
     4.1424   4.3692   4.6488   4.7155   4.7745   4.8662   4.9566   5.0086
     5.0505   5.1488   5.2099   5.4813   7.4100   8.8866   9.1801   9.2987
     9.3146   9.3358   9.4407   9.5255   9.5532   9.6846   9.7745  10.3692
    10.8591  11.3709

          k = 0.3750-0.1250 0.0000 ( 28238 PWs)   bands (ev):

   -50.4318 -50.3933 -50.3709 -26.8841 -26.8606 -26.8409 -26.8364 -26.8123
   -26.8026 -26.7604 -26.7563 -26.7326 -20.1240 -19.8435 -18.8981 -18.7858
   -11.2468 -11.1958 -10.9427 -10.5281 -10.4947 -10.3228 -10.2454 -10.2238
   -10.1641  -9.8811  -5.3791  -5.2552  -5.2403  -5.0304  -4.9484  -4.7315
    -4.2594  -4.2304  -4.1311  -4.0322  -3.8850  -3.7878   1.5570   1.5787
     1.7463   2.0125   2.1765   2.2916   2.5714   2.7205   2.8230   2.9625
     2.9996   3.0752   3.1103   3.1492   3.2459   3.4363   3.4506   3.8720
     4.0832   4.1458   4.3176   4.4092   4.5778   4.6721   4.7364   4.7564
     4.9100   5.0894   5.2265   5.5004   6.9859   8.3938   8.8500   9.1050
     9.1533   9.2210   9.2598   9.3078   9.3239   9.3931   9.6364  10.0858
    10.5772  10.9692

          k =-0.5000 0.0000 0.0000 ( 28214 PWs)   bands (ev):

   -50.4318 -50.3933 -50.3709 -26.8941 -26.8707 -26.8407 -26.8267 -26.8123
   -26.8025 -26.7603 -26.7468 -26.7325 -20.1210 -19.8401 -18.8931 -18.7819
   -11.3611 -11.2823 -10.9788 -10.4914 -10.4510 -10.3395 -10.2688 -10.1971
   -10.1698  -9.9366  -5.3413  -5.1890  -5.0713  -4.9995  -4.7346  -4.7296
    -4.2071  -4.0859  -4.0673  -3.9284  -3.7904  -3.7702   1.3287   1.3543
     1.5483   1.6673   2.0263   2.1453   2.7034   2.7452   2.8793   2.9250
     3.0078   3.0449   3.0624   3.2354   3.2702   3.3392   3.5302   3.6916
     3.8260   3.9691   4.1032   4.4506   4.5242   4.6209   4.6794   4.6938
     4.9341   5.1141   5.2028   5.5713   7.7689   7.9274   8.2171   8.7469
     9.2335   9.3388   9.3436   9.4301   9.4758   9.5082   9.7444  10.2728
    10.4347  10.7494

          k =-0.5000 0.1250 0.0000 ( 28202 PWs)   bands (ev):

   -50.4316 -50.3931 -50.3707 -26.8935 -26.8701 -26.8403 -26.8360 -26.8119
   -26.8117 -26.7599 -26.7559 -26.7321 -20.1111 -19.8294 -18.8812 -18.7701
   -11.2709 -11.1915 -10.8927 -10.4885 -10.4520 -10.3214 -10.2407 -10.1857
   -10.1787  -9.9060  -5.3829  -5.2571  -5.1745  -5.1147  -4.8366  -4.8304
    -4.3025  -4.1786  -4.1304  -3.9664  -3.8945  -3.8841   1.3231   1.3433
     1.5312   1.9171   2.1449   2.1504   2.5934   2.7079   2.7266   2.8521
     2.9021   2.9869   3.0551   3.1118   3.1376   3.3665   3.3686   3.8576
     3.9950   4.2497   4.2883   4.3602   4.6472   4.6661   4.7018   4.7345
     4.7632   5.0419   5.1822   5.5683   7.9078   8.0647   8.4231   8.8839
     9.3325   9.3798   9.3891   9.4634   9.5335   9.5491   9.7818  10.5238
    10.6528  10.7844

          k =-0.5000 0.2500 0.0000 ( 28142 PWs)   bands (ev):

   -50.4311 -50.3926 -50.3703 -26.8920 -26.8685 -26.8585 -26.8392 -26.8346
   -26.8104 -26.7778 -26.7588 -26.7311 -20.0869 -19.8036 -18.8523 -18.7415
   -11.0332 -10.9541 -10.6743 -10.4953 -10.4554 -10.2896 -10.2145 -10.1811
   -10.1341  -9.8318  -5.5075  -5.4184  -5.4055  -5.3429  -5.0896  -5.0520
    -4.4847  -4.4341  -4.3765  -4.0974  -4.0794  -4.0229   1.2989   1.3141
     1.4955   2.0904   2.1541   2.2595   2.3494   2.3548   2.4772   2.5723
     2.6074   2.7593   2.9572   3.0795   3.1324   3.1407   3.4151   3.9368
     4.3105   4.4163   4.6853   4.7168   4.7644   4.8658   4.8906   4.9102
     5.0126   5.1378   5.1933   5.5678   8.3271   8.4784   8.9213   9.2387
     9.5139   9.5308   9.5488   9.5920   9.6415   9.7278   9.8755  10.7833
    10.9115  11.0415

          k =-0.5000 0.3750 0.0000 ( 28172 PWs)   bands (ev):

   -50.4307 -50.3922 -50.3699 -26.8905 -26.8808 -26.8670 -26.8571 -26.8382
   -26.8090 -26.7995 -26.7578 -26.7301 -20.0625 -19.7774 -18.8230 -18.7124
   -10.7373 -10.6692 -10.5180 -10.4698 -10.4503 -10.2842 -10.2244 -10.1726
   -10.0775  -9.7595  -5.6770  -5.6568  -5.5115  -5.4969  -5.3363  -5.2947
    -4.6731  -4.6529  -4.6024  -4.2934  -4.2691  -4.0343   1.2017   1.2226
     1.4066   1.7488   1.7528   1.7605   1.9383   2.1835   2.2172   2.7203
     2.7854   2.8482   2.9420   3.0628   3.0783   3.1737   3.3550   3.9785
     4.4348   4.7964   4.8192   5.0016   5.0232   5.1286   5.1938   5.2480
     5.2801   5.3818   5.5337   5.5738   9.0134   9.1518   9.4163   9.5937
     9.6232   9.7215   9.7456   9.7769   9.8850   9.9674   9.9820  10.9125
    10.9255  11.0513

          k =-0.5000-0.5000 0.0000 ( 28120 PWs)   bands (ev):

   -50.4305 -50.3920 -50.3697 -26.8899 -26.8899 -26.8664 -26.8664 -26.8378
   -26.8084 -26.8084 -26.7574 -26.7297 -20.0523 -19.7665 -18.8108 -18.7002
   -10.5318 -10.5318 -10.4854 -10.4795 -10.4795 -10.2349 -10.2228 -10.2228
   -10.0584  -9.7313  -5.7543  -5.7543  -5.5559  -5.4970  -5.4371  -5.4371
    -4.7677  -4.7677  -4.6190  -4.3695  -4.3695  -4.0329   1.0800   1.1035
     1.2917   1.5855   1.5921   1.6437   1.7759   2.1603   2.2218   2.7897
     2.7897   2.9010   2.9857   2.9857   3.0068   3.3031   3.3031   3.9652
     4.4329   4.9345   4.9345   5.1618   5.1618   5.2818   5.2818   5.3341
     5.4235   5.5710   5.5710   5.6688   9.6070   9.6070   9.7353   9.7353
     9.7625   9.8669   9.9163   9.9163  10.0591  10.0820  10.0820  10.1539
    10.3626  11.1263

     the Fermi energy is     5.6720 ev

!    total energy              =    -912.66609575 Ry
     Harris-Foulkes estimate   =    -912.66609589 Ry
     estimated scf accuracy    <          8.8E-12 Ry

     The total energy is the sum of the following terms:

     one-electron contribution =   -4582.86719503 Ry
     hartree contribution      =    2349.35955654 Ry
     xc contribution           =    -188.13090836 Ry
     ewald contribution        =    1509.18118419 Ry
     electric field correction =      -0.20853496 Ry
     smearing contrib. (-TS)   =      -0.00019813 Ry

     convergence has been achieved in  49 iterations

     Forces acting on atoms (cartesian axes, Ry/au):

     atom    1 type  1   force =    -0.00000000    0.00000000   -0.00030986
     atom    2 type  3   force =    -0.00000000   -0.00000001   -0.00093954
     atom    3 type  2   force =     0.00000000    0.00000000   -0.00051774
     atom    4 type  3   force =     0.00000000   -0.00000000   -0.00048706
     atom    5 type  3   force =     0.00000001    0.00000000   -0.00048703
     atom    6 type  1   force =    -0.00000000    0.00000001   -0.00039824
     atom    7 type  3   force =    -0.00000000   -0.00000001   -0.00009102
     atom    8 type  2   force =    -0.00000001    0.00000007   -0.00025329
     atom    9 type  3   force =     0.00000000   -0.00000005   -0.00028862
     atom   10 type  3   force =     0.00000000   -0.00000003   -0.00028868
     atom   11 type  1   force =    -0.00000000    0.00000002   -0.00007916
     atom   12 type  3   force =     0.00000000   -0.00000001    0.00070222
     atom   13 type  2   force =    -0.00000000    0.00000001    0.00069481
     atom   14 type  3   force =     0.00000000   -0.00000001    0.00067846
     atom   15 type  3   force =     0.00000000    0.00000000    0.00067846
     atom   16 type  1   force =    -0.00000000    0.00000000    0.00049915
     atom   17 type  3   force =     0.00000000   -0.00000000    0.00088716

      =     0.002249     Total SCF correction =     0.000009


     Computing stress (Cartesian axis) and pressure

          total   stress  (Ry/bohr**3)                   (kbar)     P=   -2.54
  -0.00000251   0.00000000  -0.00000000         -0.37      0.00     -0.00
   0.00000000  -0.00000251   0.00000000          0.00     -0.37      0.00
  -0.00000000   0.00000000  -0.00004684         -0.00      0.00     -6.89


     Writing output data file BaTiO3_7_Ba-O_P4mm.save/

     init_run     :      1.94s CPU      2.00s WALL (       2 calls)
     electrons    :    801.36s CPU    813.03s WALL (      13 calls)
     update_pot   :      4.74s CPU      4.77s WALL (      11 calls)
     forces       :      6.56s CPU      6.64s WALL (      13 calls)
     stress       :     24.76s CPU     25.03s WALL (      13 calls)

     Called by init_run:
     wfcinit      :      1.30s CPU      1.34s WALL (       2 calls)
     potinit      :      0.22s CPU      0.22s WALL (       2 calls)
     hinit0       :      0.26s CPU      0.27s WALL (       2 calls)

     Called by electrons:
     c_bands      :    732.04s CPU    742.00s WALL (     304 calls)
     sum_band     :     63.51s CPU     64.76s WALL (     304 calls)
     v_of_rho     :      3.40s CPU      3.45s WALL (     315 calls)
     mix_rho      :      1.33s CPU      1.34s WALL (     304 calls)

     Called by c_bands:
     init_us_2    :      9.45s CPU      9.67s WALL (    5724 calls)
     cegterg      :    626.66s CPU    635.56s WALL (    2750 calls)

     Called by sum_band:

     Called by *egterg:
     h_psi        :    344.27s CPU    350.93s WALL (   14831 calls)
     g_psi        :      1.41s CPU      1.43s WALL (   12063 calls)
     cdiaghg      :    185.76s CPU    187.05s WALL (   14696 calls)

     Called by h_psi:
     h_psi:pot    :    342.32s CPU    348.94s WALL (   14831 calls)
     h_psi:calbec :     31.28s CPU     31.74s WALL (   14831 calls)
     vloc_psi     :    277.65s CPU    283.50s WALL (   14831 calls)
     add_vuspsi   :     33.27s CPU     33.60s WALL (   14831 calls)

     General routines
     calbec       :     34.11s CPU     34.61s WALL (   15416 calls)
     fft          :      2.55s CPU      2.61s WALL (    4079 calls)
     ffts         :      0.32s CPU      0.32s WALL (     619 calls)
     fftw         :    315.70s CPU    322.26s WALL ( 1356932 calls)
     interpolate  :      0.36s CPU      0.39s WALL (     315 calls)

     Parallel routines
     fft_scatt_xy :     26.20s CPU     26.71s WALL ( 1361630 calls)
     fft_scatt_yz :    181.37s CPU    185.17s WALL ( 1361630 calls)

     PWSCF        :  14m 1.11s CPU  14m18.37s WALL


   This run was terminated on:  15:26: 3   4Jun2021

=------------------------------------------------------------------------------=
   JOB DONE.
=------------------------------------------------------------------------------=
