
     Program PWSCF v.6.4.1 starts on  4Jun2021 at 14: 0:48 

     This program is part of the open-source Quantum ESPRESSO suite
     for quantum simulation of materials; please cite
         "P. Giannozzi et al., J. Phys.:Condens. Matter 21 395502 (2009);
         "P. Giannozzi et al., J. Phys.:Condens. Matter 29 465901 (2017);
          URL http://www.quantum-espresso.org", 
     in publications or presentations arising from this work. More details at
     http://www.quantum-espresso.org/quote

     Parallel version (MPI & OpenMP), running on     160 processor cores
     Number of MPI processes:               160
     Threads/MPI process:                     1

     MPI processes distributed on     4 nodes
     K-points division:     npool     =       4
     R & G space division:  proc/nbgrp/npool/nimage =      40
     Waiting for input...
     Reading input from standard input

     Current dimensions of program PWSCF are:
     Max number of different atomic species (ntypx) = 10
     Max number of k-points (npk) =  40000
     Max angular momentum in pseudopotentials (lmaxx) =  3
     Presently no symmetry can be used with electric field


     Subspace diagonalization in iterative solution of the eigenvalue problem:
     one sub-group per band group will be used
     scalapack distributed-memory algorithm (size of sub-group:  4*  4 procs)

 
     Parallelization info
     --------------------
     sticks:   dense  smooth     PW     G-vecs:    dense   smooth      PW
     Min          44      36     10                 7966     5720     862
     Max          45      37     11                 8001     5735     885
     Sum        1789    1449    421               319509   228925   34763
 


     bravais-lattice index     =            0
     lattice parameter (alat)  =       7.5324  a.u.
     unit-cell volume          =    2367.1780 (a.u.)^3
     number of atoms/cell      =           17
     number of atomic types    =            3
     number of electrons       =       136.00
     number of Kohn-Sham states=           82
     kinetic-energy cutoff     =      80.0000  Ry
     charge density cutoff     =     400.0000  Ry
     convergence threshold     =      1.0E-09
     mixing beta               =       0.3000
     number of iterations used =            8  plain     mixing
     Exchange-correlation      = PBESOL ( 1  4 10  8 0 0)
     nstep                     =           50


     celldm(1)=   7.532448  celldm(2)=   0.000000  celldm(3)=   0.000000
     celldm(4)=   0.000000  celldm(5)=   0.000000  celldm(6)=   0.000000

     crystal axes: (cart. coord. in units of alat)
               a(1) = (   1.000000   0.000000   0.000000 )  
               a(2) = (   0.000000   1.000000   0.000000 )  
               a(3) = (   0.000000   0.000000   5.538886 )  

     reciprocal axes: (cart. coord. in units 2 pi/alat)
               b(1) = (  1.000000  0.000000  0.000000 )  
               b(2) = (  0.000000  1.000000  0.000000 )  
               b(3) = (  0.000000  0.000000  0.180542 )  


     PseudoPot. # 1 for Ba read from file:
     ./pseudo/Ba.pbesol-nc-sr.upf
     MD5 check sum: 716a24e91cb490012dd496b6aa92d00e
     Pseudo is Norm-conserving + core correction, Zval = 10.0
     Generated using ONCVPSP code by D. R. Hamann
     Using radial grid of 1936 points,  6 beta functions with: 
                l(1) =   0
                l(2) =   0
                l(3) =   1
                l(4) =   1
                l(5) =   2
                l(6) =   2

     PseudoPot. # 2 for Ti read from file:
     ./pseudo/Ti.pbesol-nc-sr.upf
     MD5 check sum: c7cef475492d2ee3d0561e3a3e59fcd4
     Pseudo is Norm-conserving + core correction, Zval = 12.0
     Generated using ONCVPSP code by D. R. Hamann
     Using radial grid of 1586 points,  6 beta functions with: 
                l(1) =   0
                l(2) =   0
                l(3) =   1
                l(4) =   1
                l(5) =   2
                l(6) =   2

     PseudoPot. # 3 for O  read from file:
     ./pseudo/O.pbesol-nc-sr.upf
     MD5 check sum: f226cbcd508cec715ff87a8f75a1dfba
     Pseudo is Norm-conserving + core correction, Zval =  6.0
     Generated using ONCVPSP code by D. R. Hamann
     Using radial grid of  936 points,  5 beta functions with: 
                l(1) =   0
                l(2) =   0
                l(3) =   1
                l(4) =   1
                l(5) =   2

     atomic species   valence    mass     pseudopotential
        Ba            10.00   137.32700     Ba( 1.00)
        Ti            12.00    47.86700     Ti( 1.00)
        O              6.00    15.99940     O ( 1.00)

     No symmetry found



   Cartesian axes

     site n.     atom                  positions (alat units)
         1           Ba  tau(   1) = (   0.0000000   0.0000000   1.2739438  )
         2           O   tau(   2) = (   0.5000000   0.5000000   1.2507130  )
         3           Ti  tau(   3) = (   0.5000000   0.5000000   1.7941119  )
         4           O   tau(   4) = (   0.5000000   0.0000000   1.7648209  )
         5           O   tau(   5) = (   0.0000000   0.5000000   1.7648209  )
         6           Ba  tau(   6) = (   0.0000000   0.0000000   2.2839789  )
         7           O   tau(   7) = (   0.5000000   0.5000000   2.2607481  )
         8           Ti  tau(   8) = (   0.5000000   0.5000000   2.8041470  )
         9           O   tau(   9) = (   0.5000000   0.0000000   2.7748560  )
        10           O   tau(  10) = (   0.0000000   0.5000000   2.7748560  )
        11           Ba  tau(  11) = (   0.0000000   0.0000000   3.2940140  )
        12           O   tau(  12) = (   0.5000000   0.5000000   3.2707832  )
        13           Ti  tau(  13) = (   0.5000000   0.5000000   3.8141821  )
        14           O   tau(  14) = (   0.5000000   0.0000000   3.7848911  )
        15           O   tau(  15) = (   0.0000000   0.5000000   3.7848911  )
        16           Ba  tau(  16) = (   0.0000000   0.0000000   4.3040492  )
        17           O   tau(  17) = (   0.5000000   0.5000000   4.2808184  )

     number of k points=    34  gaussian smearing, width (Ry)=  0.0050
                       cart. coord. in units 2pi/alat
        k(    1) = (   0.0000000   0.0000000   0.0000000), wk =   0.0312500
        k(    2) = (   0.0000000   0.1250000   0.0000000), wk =   0.0625000
        k(    3) = (   0.0000000   0.2500000   0.0000000), wk =   0.0625000
        k(    4) = (   0.0000000   0.3750000   0.0000000), wk =   0.0625000
        k(    5) = (   0.0000000  -0.5000000   0.0000000), wk =   0.0312500
        k(    6) = (   0.1250000   0.0000000   0.0000000), wk =   0.0625000
        k(    7) = (   0.1250000   0.1250000   0.0000000), wk =   0.0625000
        k(    8) = (   0.1250000   0.2500000   0.0000000), wk =   0.0625000
        k(    9) = (   0.1250000   0.3750000   0.0000000), wk =   0.0625000
        k(   10) = (   0.1250000  -0.5000000   0.0000000), wk =   0.0625000
        k(   11) = (   0.1250000  -0.3750000   0.0000000), wk =   0.0625000
        k(   12) = (   0.1250000  -0.2500000   0.0000000), wk =   0.0625000
        k(   13) = (   0.1250000  -0.1250000   0.0000000), wk =   0.0625000
        k(   14) = (   0.2500000   0.0000000   0.0000000), wk =   0.0625000
        k(   15) = (   0.2500000   0.1250000   0.0000000), wk =   0.0625000
        k(   16) = (   0.2500000   0.2500000   0.0000000), wk =   0.0625000
        k(   17) = (   0.2500000   0.3750000   0.0000000), wk =   0.0625000
        k(   18) = (   0.2500000  -0.5000000   0.0000000), wk =   0.0625000
        k(   19) = (   0.2500000  -0.3750000   0.0000000), wk =   0.0625000
        k(   20) = (   0.2500000  -0.2500000   0.0000000), wk =   0.0625000
        k(   21) = (   0.2500000  -0.1250000   0.0000000), wk =   0.0625000
        k(   22) = (   0.3750000   0.0000000   0.0000000), wk =   0.0625000
        k(   23) = (   0.3750000   0.1250000   0.0000000), wk =   0.0625000
        k(   24) = (   0.3750000   0.2500000   0.0000000), wk =   0.0625000
        k(   25) = (   0.3750000   0.3750000   0.0000000), wk =   0.0625000
        k(   26) = (   0.3750000  -0.5000000   0.0000000), wk =   0.0625000
        k(   27) = (   0.3750000  -0.3750000   0.0000000), wk =   0.0625000
        k(   28) = (   0.3750000  -0.2500000   0.0000000), wk =   0.0625000
        k(   29) = (   0.3750000  -0.1250000   0.0000000), wk =   0.0625000
        k(   30) = (  -0.5000000   0.0000000   0.0000000), wk =   0.0312500
        k(   31) = (  -0.5000000   0.1250000   0.0000000), wk =   0.0625000
        k(   32) = (  -0.5000000   0.2500000   0.0000000), wk =   0.0625000
        k(   33) = (  -0.5000000   0.3750000   0.0000000), wk =   0.0625000
        k(   34) = (  -0.5000000  -0.5000000   0.0000000), wk =   0.0312500

     Dense  grid:   319509 G-vectors     FFT dimensions: (  48,  48, 270)

     Smooth grid:   228925 G-vectors     FFT dimensions: (  45,  45, 240)

     Estimated max dynamical RAM per process >      35.96 MB

     Estimated total dynamical RAM >       5.62 GB

     Initial potential from superposition of free atoms

     starting charge  135.93448, renormalised to  136.00000

     negative rho (up, down):  4.559E-06 0.000E+00
 
     Adding external electric field

     Computed dipole along edir(3) : 
        Dipole                0.0211 Ry au,          0.0537 Debye
        Dipole field          0.0001 Ry au, 
 
        Potential amp.       -0.0092 Ry
        Total length         41.1999 bohr
 
     Starting wfcs are   90 randomized atomic wfcs

     total cpu time spent up to now is        4.9 secs

     Self-consistent Calculation

     iteration #  1     ecut=    80.00 Ry     beta= 0.30
     Davidson diagonalization with overlap
     ethr =  1.00E-02,  avg # of iterations =  2.9

     negative rho (up, down):  6.725E-07 0.000E+00
 
     Adding external electric field

     Computed dipole along edir(3) : 
        Dipole                1.5075 Ry au,          3.8317 Debye
        Dipole field          0.0080 Ry au, 
 
        Potential amp.       -0.6594 Ry
        Total length         41.1999 bohr
 

     total cpu time spent up to now is        7.3 secs

     total energy              =    -911.21898827 Ry
     Harris-Foulkes estimate   =    -914.08520086 Ry
     estimated scf accuracy    <       6.40668132 Ry

     iteration #  2     ecut=    80.00 Ry     beta= 0.30
     Davidson diagonalization with overlap
     ethr =  4.71E-03,  avg # of iterations =  4.9

     negative rho (up, down):  1.175E-07 0.000E+00
 
     Adding external electric field

     Computed dipole along edir(3) : 
        Dipole               -1.4240 Ry au,         -3.6195 Debye
        Dipole field         -0.0076 Ry au, 
 
        Potential amp.        0.6229 Ry
        Total length         41.1999 bohr
 

     total cpu time spent up to now is       10.0 secs

     total energy              =    -904.49551386 Ry
     Harris-Foulkes estimate   =    -914.42937893 Ry
     estimated scf accuracy    <     287.55639166 Ry

     iteration #  3     ecut=    80.00 Ry     beta= 0.30
     Davidson diagonalization with overlap
     ethr =  4.71E-03,  avg # of iterations =  8.6
 
     Adding external electric field

     Computed dipole along edir(3) : 
        Dipole                0.1426 Ry au,          0.3625 Debye
        Dipole field          0.0008 Ry au, 
 
        Potential amp.       -0.0624 Ry
        Total length         41.1999 bohr
 

     total cpu time spent up to now is       14.1 secs

     total energy              =    -906.50237639 Ry
     Harris-Foulkes estimate   =    -914.85013564 Ry
     estimated scf accuracy    <     395.49434298 Ry

     iteration #  4     ecut=    80.00 Ry     beta= 0.30
     Davidson diagonalization with overlap
     ethr =  4.71E-03,  avg # of iterations =  4.9
 
     Adding external electric field

     Computed dipole along edir(3) : 
        Dipole                0.1859 Ry au,          0.4726 Debye
        Dipole field          0.0010 Ry au, 
 
        Potential amp.       -0.0813 Ry
        Total length         41.1999 bohr
 

     total cpu time spent up to now is       16.6 secs

     total energy              =    -912.68662402 Ry
     Harris-Foulkes estimate   =    -912.98137367 Ry
     estimated scf accuracy    <       2.16217247 Ry

     iteration #  5     ecut=    80.00 Ry     beta= 0.30
     Davidson diagonalization with overlap
     ethr =  1.59E-03,  avg # of iterations =  3.5
 
     Adding external electric field

     Computed dipole along edir(3) : 
        Dipole                0.2334 Ry au,          0.5932 Debye
        Dipole field          0.0012 Ry au, 
 
        Potential amp.       -0.1021 Ry
        Total length         41.1999 bohr
 

     total cpu time spent up to now is       18.8 secs

     total energy              =    -912.53354425 Ry
     Harris-Foulkes estimate   =    -912.73577934 Ry
     estimated scf accuracy    <       1.33257804 Ry

     iteration #  6     ecut=    80.00 Ry     beta= 0.30
     Davidson diagonalization with overlap
     ethr =  9.80E-04,  avg # of iterations =  3.9
 
     Adding external electric field

     Computed dipole along edir(3) : 
        Dipole                0.2791 Ry au,          0.7093 Debye
        Dipole field          0.0015 Ry au, 
 
        Potential amp.       -0.1221 Ry
        Total length         41.1999 bohr
 

     total cpu time spent up to now is       21.3 secs

     total energy              =    -912.45301435 Ry
     Harris-Foulkes estimate   =    -912.56348714 Ry
     estimated scf accuracy    <       0.72157049 Ry

     iteration #  7     ecut=    80.00 Ry     beta= 0.30
     Davidson diagonalization with overlap
     ethr =  5.31E-04,  avg # of iterations =  5.2
 
     Adding external electric field

     Computed dipole along edir(3) : 
        Dipole                0.3517 Ry au,          0.8940 Debye
        Dipole field          0.0019 Ry au, 
 
        Potential amp.       -0.1539 Ry
        Total length         41.1999 bohr
 

     total cpu time spent up to now is       23.8 secs

     total energy              =    -912.43418891 Ry
     Harris-Foulkes estimate   =    -912.48148777 Ry
     estimated scf accuracy    <       0.37450724 Ry

     iteration #  8     ecut=    80.00 Ry     beta= 0.30
     Davidson diagonalization with overlap
     ethr =  2.75E-04,  avg # of iterations =  5.9
 
     Adding external electric field

     Computed dipole along edir(3) : 
        Dipole                0.3891 Ry au,          0.9889 Debye
        Dipole field          0.0021 Ry au, 
 
        Potential amp.       -0.1702 Ry
        Total length         41.1999 bohr
 

     total cpu time spent up to now is       26.9 secs

     total energy              =    -912.45694844 Ry
     Harris-Foulkes estimate   =    -912.46471121 Ry
     estimated scf accuracy    <       0.22795113 Ry

     iteration #  9     ecut=    80.00 Ry     beta= 0.30
     Davidson diagonalization with overlap
     ethr =  1.68E-04,  avg # of iterations =  4.1

     negative rho (up, down):  7.505E-06 0.000E+00
 
     Adding external electric field

     Computed dipole along edir(3) : 
        Dipole                0.4361 Ry au,          1.1085 Debye
        Dipole field          0.0023 Ry au, 
 
        Potential amp.       -0.1908 Ry
        Total length         41.1999 bohr
 

     total cpu time spent up to now is       29.4 secs

     total energy              =    -912.45329066 Ry
     Harris-Foulkes estimate   =    -912.45924592 Ry
     estimated scf accuracy    <       0.18989749 Ry

     iteration # 10     ecut=    80.00 Ry     beta= 0.30
     Davidson diagonalization with overlap
     ethr =  1.40E-04,  avg # of iterations =  2.2
 
     Adding external electric field

     Computed dipole along edir(3) : 
        Dipole                0.4028 Ry au,          1.0238 Debye
        Dipole field          0.0021 Ry au, 
 
        Potential amp.       -0.1762 Ry
        Total length         41.1999 bohr
 

     total cpu time spent up to now is       31.4 secs

     total energy              =    -912.45319195 Ry
     Harris-Foulkes estimate   =    -912.45459457 Ry
     estimated scf accuracy    <       0.09834595 Ry

     iteration # 11     ecut=    80.00 Ry     beta= 0.30
     Davidson diagonalization with overlap
     ethr =  7.23E-05,  avg # of iterations =  4.4

     negative rho (up, down):  4.711E-04 0.000E+00
 
     Adding external electric field

     Computed dipole along edir(3) : 
        Dipole                0.4468 Ry au,          1.1356 Debye
        Dipole field          0.0024 Ry au, 
 
        Potential amp.       -0.1954 Ry
        Total length         41.1999 bohr
 

     total cpu time spent up to now is       33.9 secs

     total energy              =    -912.45108638 Ry
     Harris-Foulkes estimate   =    -912.45385998 Ry
     estimated scf accuracy    <       0.14917397 Ry

     iteration # 12     ecut=    80.00 Ry     beta= 0.30
     Davidson diagonalization with overlap
     ethr =  7.23E-05,  avg # of iterations =  4.2
 
     Adding external electric field

     Computed dipole along edir(3) : 
        Dipole                0.3247 Ry au,          0.8252 Debye
        Dipole field          0.0017 Ry au, 
 
        Potential amp.       -0.1420 Ry
        Total length         41.1999 bohr
 

     total cpu time spent up to now is       37.6 secs

     total energy              =    -912.44235721 Ry
     Harris-Foulkes estimate   =    -912.45291335 Ry
     estimated scf accuracy    <       0.03079302 Ry

     iteration # 13     ecut=    80.00 Ry     beta= 0.30
     Davidson diagonalization with overlap
     ethr =  2.26E-05,  avg # of iterations =  7.1
 
     Adding external electric field

     Computed dipole along edir(3) : 
        Dipole                0.3646 Ry au,          0.9268 Debye
        Dipole field          0.0019 Ry au, 
 
        Potential amp.       -0.1595 Ry
        Total length         41.1999 bohr
 

     total cpu time spent up to now is       40.9 secs

     total energy              =    -912.44837168 Ry
     Harris-Foulkes estimate   =    -912.45187934 Ry
     estimated scf accuracy    <       0.09459232 Ry

     iteration # 14     ecut=    80.00 Ry     beta= 0.30
     Davidson diagonalization with overlap
     ethr =  2.26E-05,  avg # of iterations =  2.6
 
     Adding external electric field

     Computed dipole along edir(3) : 
        Dipole                0.3897 Ry au,          0.9905 Debye
        Dipole field          0.0021 Ry au, 
 
        Potential amp.       -0.1705 Ry
        Total length         41.1999 bohr
 

     total cpu time spent up to now is       42.8 secs

     total energy              =    -912.44786947 Ry
     Harris-Foulkes estimate   =    -912.44906770 Ry
     estimated scf accuracy    <       0.00981754 Ry

     iteration # 15     ecut=    80.00 Ry     beta= 0.30
     Davidson diagonalization with overlap
     ethr =  7.22E-06,  avg # of iterations =  3.5
 
     Adding external electric field

     Computed dipole along edir(3) : 
        Dipole                0.3882 Ry au,          0.9866 Debye
        Dipole field          0.0021 Ry au, 
 
        Potential amp.       -0.1698 Ry
        Total length         41.1999 bohr
 

     total cpu time spent up to now is       44.9 secs

     total energy              =    -912.44851803 Ry
     Harris-Foulkes estimate   =    -912.44855052 Ry
     estimated scf accuracy    <       0.00059243 Ry

     iteration # 16     ecut=    80.00 Ry     beta= 0.30
     Davidson diagonalization with overlap
     ethr =  4.36E-07,  avg # of iterations =  4.4
 
     Adding external electric field

     Computed dipole along edir(3) : 
        Dipole                0.3857 Ry au,          0.9805 Debye
        Dipole field          0.0020 Ry au, 
 
        Potential amp.       -0.1687 Ry
        Total length         41.1999 bohr
 

     total cpu time spent up to now is       47.3 secs

     total energy              =    -912.44854682 Ry
     Harris-Foulkes estimate   =    -912.44859462 Ry
     estimated scf accuracy    <       0.00050089 Ry

     iteration # 17     ecut=    80.00 Ry     beta= 0.30
     Davidson diagonalization with overlap
     ethr =  3.68E-07,  avg # of iterations =  1.7
 
     Adding external electric field

     Computed dipole along edir(3) : 
        Dipole                0.3763 Ry au,          0.9564 Debye
        Dipole field          0.0020 Ry au, 
 
        Potential amp.       -0.1646 Ry
        Total length         41.1999 bohr
 

     total cpu time spent up to now is       49.0 secs

     total energy              =    -912.44849562 Ry
     Harris-Foulkes estimate   =    -912.44863883 Ry
     estimated scf accuracy    <       0.00362684 Ry

     iteration # 18     ecut=    80.00 Ry     beta= 0.30
     Davidson diagonalization with overlap
     ethr =  3.68E-07,  avg # of iterations =  1.1
 
     Adding external electric field

     Computed dipole along edir(3) : 
        Dipole                0.3785 Ry au,          0.9621 Debye
        Dipole field          0.0020 Ry au, 
 
        Potential amp.       -0.1656 Ry
        Total length         41.1999 bohr
 

     total cpu time spent up to now is       50.6 secs

     total energy              =    -912.44854089 Ry
     Harris-Foulkes estimate   =    -912.44858986 Ry
     estimated scf accuracy    <       0.00306395 Ry

     iteration # 19     ecut=    80.00 Ry     beta= 0.30
     Davidson diagonalization with overlap
     ethr =  3.68E-07,  avg # of iterations =  1.1
 
     Adding external electric field

     Computed dipole along edir(3) : 
        Dipole                0.3781 Ry au,          0.9610 Debye
        Dipole field          0.0020 Ry au, 
 
        Potential amp.       -0.1654 Ry
        Total length         41.1999 bohr
 

     total cpu time spent up to now is       52.2 secs

     total energy              =    -912.44857643 Ry
     Harris-Foulkes estimate   =    -912.44857918 Ry
     estimated scf accuracy    <       0.00019321 Ry

     iteration # 20     ecut=    80.00 Ry     beta= 0.30
     Davidson diagonalization with overlap
     ethr =  1.42E-07,  avg # of iterations =  1.1
 
     Adding external electric field

     Computed dipole along edir(3) : 
        Dipole                0.3774 Ry au,          0.9592 Debye
        Dipole field          0.0020 Ry au, 
 
        Potential amp.       -0.1651 Ry
        Total length         41.1999 bohr
 

     total cpu time spent up to now is       53.7 secs

     total energy              =    -912.44857631 Ry
     Harris-Foulkes estimate   =    -912.44857980 Ry
     estimated scf accuracy    <       0.00011008 Ry

     iteration # 21     ecut=    80.00 Ry     beta= 0.30
     Davidson diagonalization with overlap
     ethr =  8.09E-08,  avg # of iterations =  1.0
 
     Adding external electric field

     Computed dipole along edir(3) : 
        Dipole                0.3767 Ry au,          0.9574 Debye
        Dipole field          0.0020 Ry au, 
 
        Potential amp.       -0.1648 Ry
        Total length         41.1999 bohr
 

     total cpu time spent up to now is       55.3 secs

     total energy              =    -912.44857621 Ry
     Harris-Foulkes estimate   =    -912.44857930 Ry
     estimated scf accuracy    <       0.00003667 Ry

     iteration # 22     ecut=    80.00 Ry     beta= 0.30
     Davidson diagonalization with overlap
     ethr =  2.70E-08,  avg # of iterations =  1.0
 
     Adding external electric field

     Computed dipole along edir(3) : 
        Dipole                0.3763 Ry au,          0.9564 Debye
        Dipole field          0.0020 Ry au, 
 
        Potential amp.       -0.1646 Ry
        Total length         41.1999 bohr
 

     total cpu time spent up to now is       57.0 secs

     total energy              =    -912.44857638 Ry
     Harris-Foulkes estimate   =    -912.44857803 Ry
     estimated scf accuracy    <       0.00000271 Ry

     iteration # 23     ecut=    80.00 Ry     beta= 0.30
     Davidson diagonalization with overlap
     ethr =  1.99E-09,  avg # of iterations =  3.9
 
     Adding external electric field

     Computed dipole along edir(3) : 
        Dipole                0.3763 Ry au,          0.9564 Debye
        Dipole field          0.0020 Ry au, 
 
        Potential amp.       -0.1646 Ry
        Total length         41.1999 bohr
 

     total cpu time spent up to now is       59.0 secs

     total energy              =    -912.44857655 Ry
     Harris-Foulkes estimate   =    -912.44857665 Ry
     estimated scf accuracy    <       0.00000005 Ry

     iteration # 24     ecut=    80.00 Ry     beta= 0.30
     Davidson diagonalization with overlap
     ethr =  3.52E-11,  avg # of iterations =  4.4
 
     Adding external electric field

     Computed dipole along edir(3) : 
        Dipole                0.3762 Ry au,          0.9563 Debye
        Dipole field          0.0020 Ry au, 
 
        Potential amp.       -0.1646 Ry
        Total length         41.1999 bohr
 

     total cpu time spent up to now is       61.9 secs

     total energy              =    -912.44857657 Ry
     Harris-Foulkes estimate   =    -912.44857670 Ry
     estimated scf accuracy    <       0.00000001 Ry

     iteration # 25     ecut=    80.00 Ry     beta= 0.30
     Davidson diagonalization with overlap
     ethr =  9.70E-12,  avg # of iterations =  2.9
 
     Adding external electric field

     Computed dipole along edir(3) : 
        Dipole                0.3762 Ry au,          0.9562 Debye
        Dipole field          0.0020 Ry au, 
 
        Potential amp.       -0.1646 Ry
        Total length         41.1999 bohr
 

     total cpu time spent up to now is       64.7 secs

     total energy              =    -912.44857657 Ry
     Harris-Foulkes estimate   =    -912.44857667 Ry
     estimated scf accuracy    <       0.00000001 Ry

     iteration # 26     ecut=    80.00 Ry     beta= 0.30
     Davidson diagonalization with overlap
     ethr =  9.42E-12,  avg # of iterations =  1.3
 
     Adding external electric field

     Computed dipole along edir(3) : 
        Dipole                0.3762 Ry au,          0.9562 Debye
        Dipole field          0.0020 Ry au, 
 
        Potential amp.       -0.1646 Ry
        Total length         41.1999 bohr
 

     total cpu time spent up to now is       66.6 secs

     total energy              =    -912.44857658 Ry
     Harris-Foulkes estimate   =    -912.44857659 Ry
     estimated scf accuracy    <          2.2E-09 Ry

     iteration # 27     ecut=    80.00 Ry     beta= 0.30
     Davidson diagonalization with overlap
     ethr =  1.65E-12,  avg # of iterations =  2.9
 
     Adding external electric field

     Computed dipole along edir(3) : 
        Dipole                0.3762 Ry au,          0.9562 Debye
        Dipole field          0.0020 Ry au, 
 
        Potential amp.       -0.1646 Ry
        Total length         41.1999 bohr
 

     total cpu time spent up to now is       68.6 secs

     End of self-consistent calculation

          k = 0.0000 0.0000 0.0000 ( 28531 PWs)   bands (ev):

   -51.6319 -50.7696 -49.7364 -28.0646 -27.9929 -27.9929 -27.2000 -27.1164
   -27.1164 -26.1238 -26.1086 -26.1086 -21.9050 -19.7522 -18.8617 -18.7529
   -12.5123 -11.6840 -11.5854 -11.3977 -10.9304 -10.5737 -10.5294  -9.9539
    -9.7011  -8.1912  -7.0454  -6.8388  -6.8388  -4.8885  -4.8885  -4.7742
    -4.1005  -3.9053  -3.9053  -3.7589  -3.7589  -3.7198   1.3598   1.8164
     1.8164   2.1357   2.6775   2.6775   2.6814   2.7876   2.8988   2.8988
     3.2074   3.2957   3.2957   3.7989   3.7989   3.8710   3.9723   3.9723
     4.2883   4.3187   4.3187   4.5661   4.7683   5.0551   5.0551   5.5644
     5.5644   6.1561   6.3957   6.5192   6.5868   6.5868   7.2523   7.2523
     7.3518   8.0035   8.3195   8.3550   8.3550   8.7163   9.2305   9.2981
     9.5237   9.5237

          k = 0.0000 0.1250 0.0000 ( 28589 PWs)   bands (ev):

   -51.6318 -50.7695 -49.7362 -28.0641 -28.0014 -27.9926 -27.1996 -27.1246
   -27.1161 -26.1234 -26.1169 -26.1082 -21.8939 -19.7372 -18.8491 -18.7390
   -12.4657 -11.6786 -11.6094 -11.3759 -10.9367 -10.5663 -10.4925  -9.9687
    -9.6912  -8.2395  -7.0590  -6.8186  -6.8171  -4.8755  -4.8606  -4.7965
    -4.1084  -3.8784  -3.8718  -3.8075  -3.7362  -3.6924   1.3008   1.6660
     1.8194   1.9613   2.2344   2.5400   2.7318   2.7361   2.8467   2.9305
     2.9664   3.1634   3.5235   3.5719   3.6555   3.7727   3.8294   3.8884
     4.0612   4.1698   4.4290   4.6076   4.7449   4.8930   4.9507   5.3461
     5.4547   6.0790   6.4641   6.4812   6.6488   6.6998   7.2593   7.2671
     7.6605   8.3189   8.3646   8.3963   8.6233   8.9913   9.3780   9.5169
     9.5330   9.5367

          k = 0.0000 0.2500 0.0000 ( 28633 PWs)   bands (ev):

   -51.6314 -50.7691 -49.7358 -28.0629 -28.0220 -27.9918 -27.1985 -27.1443
   -27.1153 -26.1371 -26.1222 -26.1075 -21.8667 -19.7006 -18.8187 -18.7047
   -12.3818 -11.6914 -11.6199 -11.3586 -10.9184 -10.5439 -10.4230  -9.9777
    -9.6534  -8.3502  -7.0719  -6.7883  -6.7636  -4.8520  -4.8397  -4.7912
    -4.1089  -3.8751  -3.8307  -3.8122  -3.6796  -3.6502   1.0650   1.2189
     1.5501   1.8225   2.0226   2.2305   2.2508   2.4443   2.5705   2.6908
     3.0015   3.0532   3.1207   3.2286   3.4575   3.5464   3.5868   3.7608
     3.9915   4.0684   4.2774   4.5762   4.5803   4.6765   4.9214   4.9437
     5.2583   5.9376   6.1923   6.4308   7.0271   7.2769   7.3641   7.5201
     8.2832   8.4018   8.6537   8.9853   9.2504   9.2547   9.5588   9.6873
     9.7804   9.8800

          k = 0.0000 0.3750 0.0000 ( 28650 PWs)   bands (ev):

   -51.6310 -50.7687 -49.7354 -28.0617 -28.0424 -27.9910 -27.1974 -27.1639
   -27.1145 -26.1571 -26.1211 -26.1067 -21.8393 -19.6634 -18.7884 -18.6693
   -12.3590 -11.7004 -11.5783 -11.3837 -10.8852 -10.4837 -10.3940  -9.9549
    -9.5870  -8.4519  -7.0669  -6.7735  -6.7086  -4.8987  -4.8087  -4.7187
    -4.1036  -3.9142  -3.8259  -3.7442  -3.6200  -3.5984   0.5608   0.8794
     1.3690   1.6404   1.7795   1.9328   2.0036   2.0846   2.2344   2.4974
     2.6893   2.8706   2.9088   3.0463   3.2924   3.3060   3.4382   3.6939
     4.0002   4.0271   4.2626   4.3072   4.4179   4.5550   4.6550   4.9207
     5.1348   5.9490   6.0197   6.3344   7.3500   7.6140   7.9016   7.9392
     8.4165   8.8568   8.9341   9.0654   9.4944   9.5821   9.8116  10.0370
    10.0587  10.1391

          k = 0.0000-0.5000 0.0000 ( 28646 PWs)   bands (ev):

   -51.6308 -50.7685 -49.7353 -28.0612 -28.0508 -27.9906 -27.1970 -27.1720
   -27.1142 -26.1654 -26.1206 -26.1064 -21.8278 -19.6478 -18.7758 -18.6543
   -12.3692 -11.7073 -11.5353 -11.4037 -10.8809 -10.4233 -10.4071  -9.9434
    -9.5476  -8.4912  -7.0608  -6.7706  -6.6852  -4.9182  -4.7943  -4.6877
    -4.1044  -3.9197  -3.8311  -3.7156  -3.5942  -3.5754   0.3333   0.7408
     1.2913   1.4628   1.7112   1.8275   1.9829   2.0064   2.0595   2.2989
     2.6558   2.7268   2.8053   3.0521   3.1682   3.2124   3.5577   3.5815
     4.0256   4.0611   4.1717   4.2279   4.3408   4.4014   4.6609   4.9224
     5.0927   5.8552   6.1358   6.2230   7.3723   8.1089   8.1240   8.2889
     8.4238   8.4297   9.0771   9.2398   9.4511   9.5944  10.0312  10.1504
    10.2313  10.3583

          k = 0.1250 0.0000 0.0000 ( 28589 PWs)   bands (ev):

   -51.6318 -50.7695 -49.7362 -28.0641 -28.0014 -27.9926 -27.1996 -27.1246
   -27.1161 -26.1234 -26.1169 -26.1082 -21.8939 -19.7372 -18.8491 -18.7390
   -12.4657 -11.6786 -11.6094 -11.3759 -10.9367 -10.5663 -10.4925  -9.9687
    -9.6912  -8.2395  -7.0590  -6.8186  -6.8171  -4.8755  -4.8606  -4.7965
    -4.1084  -3.8784  -3.8718  -3.8075  -3.7362  -3.6924   1.3008   1.6660
     1.8194   1.9613   2.2344   2.5400   2.7318   2.7361   2.8467   2.9305
     2.9664   3.1634   3.5235   3.5719   3.6555   3.7727   3.8294   3.8884
     4.0612   4.1698   4.4290   4.6076   4.7449   4.8930   4.9507   5.3461
     5.4547   6.0790   6.4641   6.4812   6.6488   6.6998   7.2593   7.2671
     7.6605   8.3189   8.3646   8.3963   8.6233   8.9913   9.3780   9.5169
     9.5330   9.5367

          k = 0.1250 0.1250 0.0000 ( 28629 PWs)   bands (ev):

   -51.6316 -50.7693 -49.7361 -28.0636 -28.0013 -28.0009 -27.1992 -27.1244
   -27.1241 -26.1230 -26.1167 -26.1164 -21.8831 -19.7228 -18.8370 -18.7254
   -12.4154 -11.6669 -11.6315 -11.3517 -10.9311 -10.5552 -10.4592  -9.9731
    -9.6839  -8.2739  -7.0663  -6.9238  -6.7128  -4.9674  -4.8223  -4.7627
    -4.1131  -3.9757  -3.8505  -3.8398  -3.7373  -3.5950   1.2452   1.5741
     1.7559   1.8032   2.1999   2.2711   2.5703   2.6968   2.7629   2.8254
     3.0192   3.2575   3.2815   3.4831   3.6546   3.6781   3.7276   3.7724
     3.9879   4.1374   4.2904   4.6073   4.6715   4.7743   5.0242   5.0967
     5.5218   5.9249   6.3464   6.5267   6.7648   6.9242   7.2772   7.3473
     7.8801   8.4060   8.4230   8.5932   8.8385   9.3615   9.4782   9.5329
     9.5731   9.6797

          k = 0.1250 0.2500 0.0000 ( 28628 PWs)   bands (ev):

   -51.6312 -50.7689 -49.7357 -28.0625 -28.0216 -28.0002 -27.1981 -27.1439
   -27.1234 -26.1367 -26.1218 -26.1157 -21.8568 -19.6876 -18.8078 -18.6921
   -12.3204 -11.6755 -11.6266 -11.3278 -10.8897 -10.5291 -10.3916  -9.9595
    -9.6524  -8.3542  -7.0815  -6.9649  -6.6749  -5.0031  -4.8819  -4.7156
    -4.1267  -4.0167  -3.9052  -3.8796  -3.6758  -3.5455   1.0235   1.2216
     1.5123   1.6642   1.9693   2.1589   2.2827   2.3236   2.4642   2.7428
     2.8008   3.0489   3.1191   3.2459   3.4275   3.5146   3.5678   3.6859
     3.8045   4.0028   4.2767   4.3662   4.5177   4.6739   4.9141   5.1361
     5.3605   5.7795   6.2432   6.4702   7.1356   7.3756   7.4637   7.5941
     8.3875   8.4864   8.6876   9.1709   9.3492   9.5926   9.6153   9.7398
     9.9374   9.9977

          k = 0.1250 0.3750 0.0000 ( 28621 PWs)   bands (ev):

   -51.6308 -50.7685 -49.7353 -28.0613 -28.0419 -27.9993 -27.1970 -27.1634
   -27.1226 -26.1566 -26.1207 -26.1149 -21.8302 -19.6518 -18.7785 -18.6579
   -12.2844 -11.6752 -11.5772 -11.3404 -10.8425 -10.4657 -10.3603  -9.9204
    -9.5906  -8.4298  -7.0837  -6.9319  -6.7223  -4.9593  -4.9400  -4.7490
    -4.1517  -3.9858  -3.9442  -3.8205  -3.7029  -3.5813   0.5453   1.0091
     1.3659   1.5762   1.6367   1.8139   2.0335   2.1909   2.2355   2.4979
     2.6462   2.7232   3.0259   3.0925   3.1264   3.3916   3.4812   3.6213
     3.7129   3.9854   4.0502   4.3187   4.4100   4.5855   4.8177   5.1382
     5.2485   5.8344   6.1117   6.3463   7.4730   7.7086   7.9570   7.9938
     8.5153   8.9193   9.0209   9.1215   9.6580   9.8442   9.8630  10.0853
    10.1784  10.4726

          k = 0.1250-0.5000 0.0000 ( 28608 PWs)   bands (ev):

   -51.6306 -50.7684 -49.7351 -28.0608 -28.0503 -27.9990 -27.1966 -27.1715
   -27.1223 -26.1649 -26.1203 -26.1145 -21.8191 -19.6368 -18.7664 -18.6435
   -12.2891 -11.6760 -11.5365 -11.3514 -10.8341 -10.4107 -10.3646  -9.9047
    -9.5520  -8.4594  -7.0820  -6.8644  -6.7979  -4.9644  -4.8904  -4.8127
    -4.1691  -3.9544  -3.9326  -3.7845  -3.6968  -3.6648   0.3210   0.9378
     1.2914   1.4471   1.6180   1.6729   1.8992   2.1325   2.1953   2.2889
     2.6379   2.6457   2.9155   3.0026   3.0942   3.3734   3.4886   3.5808
     3.6834   3.8798   4.0098   4.3376   4.3617   4.5380   4.7725   5.1264
     5.2493   5.8322   6.1103   6.2499   7.5027   8.1272   8.1846   8.3641
     8.5213   8.5448   9.1304   9.2653   9.6798   9.8518  10.0717  10.2652
    10.4100  10.5057

          k = 0.1250-0.3750 0.0000 ( 28621 PWs)   bands (ev):

   -51.6308 -50.7685 -49.7353 -28.0613 -28.0419 -27.9993 -27.1970 -27.1634
   -27.1226 -26.1566 -26.1207 -26.1149 -21.8302 -19.6518 -18.7785 -18.6579
   -12.2844 -11.6752 -11.5772 -11.3404 -10.8425 -10.4657 -10.3603  -9.9204
    -9.5906  -8.4298  -7.0837  -6.9319  -6.7223  -4.9593  -4.9400  -4.7490
    -4.1517  -3.9858  -3.9442  -3.8205  -3.7029  -3.5813   0.5453   1.0091
     1.3659   1.5762   1.6367   1.8139   2.0335   2.1909   2.2355   2.4979
     2.6462   2.7232   3.0259   3.0925   3.1264   3.3916   3.4812   3.6213
     3.7129   3.9854   4.0502   4.3187   4.4100   4.5855   4.8177   5.1382
     5.2485   5.8344   6.1117   6.3463   7.4730   7.7086   7.9570   7.9938
     8.5153   8.9193   9.0209   9.1215   9.6580   9.8442   9.8630  10.0853
    10.1784  10.4726

          k = 0.1250-0.2500 0.0000 ( 28628 PWs)   bands (ev):

   -51.6312 -50.7689 -49.7357 -28.0625 -28.0216 -28.0002 -27.1981 -27.1439
   -27.1234 -26.1367 -26.1218 -26.1157 -21.8568 -19.6876 -18.8078 -18.6921
   -12.3204 -11.6755 -11.6266 -11.3278 -10.8897 -10.5291 -10.3916  -9.9595
    -9.6524  -8.3542  -7.0815  -6.9649  -6.6749  -5.0031  -4.8819  -4.7156
    -4.1267  -4.0167  -3.9052  -3.8796  -3.6758  -3.5455   1.0235   1.2216
     1.5123   1.6642   1.9693   2.1589   2.2827   2.3236   2.4642   2.7428
     2.8008   3.0489   3.1191   3.2459   3.4275   3.5146   3.5678   3.6859
     3.8045   4.0028   4.2767   4.3662   4.5177   4.6739   4.9141   5.1361
     5.3605   5.7795   6.2432   6.4702   7.1356   7.3756   7.4637   7.5941
     8.3875   8.4864   8.6876   9.1709   9.3492   9.5925   9.6153   9.7398
     9.9374   9.9977

          k = 0.1250-0.1250 0.0000 ( 28629 PWs)   bands (ev):

   -51.6316 -50.7693 -49.7361 -28.0636 -28.0013 -28.0009 -27.1992 -27.1244
   -27.1241 -26.1230 -26.1167 -26.1164 -21.8831 -19.7228 -18.8370 -18.7254
   -12.4154 -11.6669 -11.6315 -11.3517 -10.9311 -10.5552 -10.4592  -9.9731
    -9.6839  -8.2739  -7.0663  -6.9238  -6.7128  -4.9674  -4.8223  -4.7627
    -4.1131  -3.9757  -3.8505  -3.8398  -3.7373  -3.5950   1.2452   1.5741
     1.7559   1.8032   2.1999   2.2711   2.5703   2.6968   2.7629   2.8254
     3.0192   3.2575   3.2815   3.4831   3.6546   3.6781   3.7276   3.7724
     3.9879   4.1374   4.2904   4.6073   4.6715   4.7743   5.0242   5.0967
     5.5218   5.9249   6.3464   6.5267   6.7648   6.9242   7.2772   7.3473
     7.8801   8.4060   8.4230   8.5932   8.8385   9.3615   9.4782   9.5329
     9.5731   9.6797

          k = 0.2500 0.0000 0.0000 ( 28633 PWs)   bands (ev):

   -51.6314 -50.7691 -49.7358 -28.0629 -28.0220 -27.9918 -27.1985 -27.1443
   -27.1153 -26.1371 -26.1222 -26.1075 -21.8667 -19.7006 -18.8187 -18.7047
   -12.3818 -11.6914 -11.6199 -11.3586 -10.9184 -10.5438 -10.4230  -9.9777
    -9.6534  -8.3502  -7.0719  -6.7883  -6.7636  -4.8520  -4.8397  -4.7912
    -4.1089  -3.8751  -3.8307  -3.8122  -3.6796  -3.6502   1.0650   1.2189
     1.5501   1.8225   2.0226   2.2305   2.2509   2.4443   2.5705   2.6908
     3.0015   3.0532   3.1207   3.2286   3.4575   3.5464   3.5868   3.7608
     3.9915   4.0684   4.2774   4.5762   4.5803   4.6765   4.9214   4.9437
     5.2583   5.9376   6.1923   6.4308   7.0271   7.2769   7.3641   7.5201
     8.2832   8.4018   8.6537   8.9853   9.2504   9.2547   9.5588   9.6873
     9.7804   9.8800

          k = 0.2500 0.1250 0.0000 ( 28628 PWs)   bands (ev):

   -51.6312 -50.7689 -49.7357 -28.0625 -28.0216 -28.0002 -27.1981 -27.1439
   -27.1234 -26.1367 -26.1218 -26.1157 -21.8568 -19.6876 -18.8078 -18.6921
   -12.3204 -11.6755 -11.6266 -11.3278 -10.8897 -10.5291 -10.3916  -9.9595
    -9.6524  -8.3542  -7.0815  -6.9649  -6.6749  -5.0031  -4.8819  -4.7156
    -4.1267  -4.0167  -3.9052  -3.8796  -3.6758  -3.5455   1.0235   1.2216
     1.5123   1.6642   1.9693   2.1589   2.2827   2.3236   2.4642   2.7428
     2.8008   3.0489   3.1191   3.2459   3.4275   3.5146   3.5678   3.6859
     3.8045   4.0028   4.2767   4.3662   4.5177   4.6739   4.9141   5.1361
     5.3605   5.7795   6.2432   6.4702   7.1356   7.3756   7.4637   7.5941
     8.3875   8.4864   8.6876   9.1709   9.3492   9.5925   9.6153   9.7398
     9.9374   9.9977

          k = 0.2500 0.2500 0.0000 ( 28583 PWs)   bands (ev):

   -51.6308 -50.7685 -49.7353 -28.0614 -28.0209 -28.0201 -27.1971 -27.1433
   -27.1426 -26.1361 -26.1353 -26.1207 -21.8326 -19.6558 -18.7814 -18.6615
   -12.1872 -11.6453 -11.6241 -11.2736 -10.8025 -10.5086 -10.3131  -9.8958
    -9.6402  -8.3648  -7.1248  -7.1048  -6.7230  -5.1539  -4.9625  -4.7655
    -4.1890  -4.1888  -4.0004  -3.9649  -3.7076  -3.5631   0.8719   1.2229
     1.3495   1.4431   1.8317   1.9240   2.0195   2.3166   2.3644   2.4027
     2.8036   2.9134   2.9764   3.0738   3.3058   3.4165   3.4417   3.6917
     3.7285   3.8730   3.8783   4.3890   4.4139   4.8110   4.9594   5.3331
     5.5873   5.5898   6.2353   6.5725   7.4707   7.6950   7.7203   7.7854
     8.7047   8.7652   8.7817   9.4747   9.6568   9.8262   9.8363   9.8704
    10.3017  10.4807

          k = 0.2500 0.3750 0.0000 ( 28586 PWs)   bands (ev):

   -51.6304 -50.7682 -49.7349 -28.0604 -28.0407 -28.0195 -27.1961 -27.1623
   -27.1420 -26.1555 -26.1347 -26.1197 -21.8081 -19.6235 -18.7547 -18.6302
   -12.0987 -11.6147 -11.5809 -11.2441 -10.7197 -10.4616 -10.2553  -9.8180
    -9.5973  -8.3763  -7.1692  -7.1266  -6.8823  -5.1902  -5.0440  -4.9232
    -4.2718  -4.2415  -4.0271  -3.9975  -3.8376  -3.6975   0.4996   1.1904
     1.2568   1.3900   1.4774   1.6129   1.8073   2.2747   2.3420   2.3762
     2.5435   2.6476   2.7785   3.0174   3.2206   3.3734   3.4487   3.5567
     3.6443   3.7806   3.8282   4.3125   4.4628   4.9185   5.0059   5.3484
     5.6843   5.7624   6.1970   6.5121   7.8299   7.9855   8.1217   8.1382
     8.8297   9.0946   9.1261   9.2699   9.9264  10.0395  10.0629  10.1783
    10.4717  10.7202

          k = 0.2500-0.5000 0.0000 ( 28558 PWs)   bands (ev):

   -51.6302 -50.7680 -49.7347 -28.0599 -28.0490 -28.0191 -27.1957 -27.1703
   -27.1416 -26.1637 -26.1343 -26.1193 -21.7979 -19.6100 -18.7436 -18.6170
   -12.0816 -11.6033 -11.5427 -11.2365 -10.7005 -10.4207 -10.2374  -9.7926
    -9.5618  -8.3813  -7.1508  -7.0874  -7.0314  -5.1125  -5.0913  -5.0654
    -4.3124  -4.1708  -4.1376  -3.8955  -3.8732  -3.8710   0.2835   1.2555
     1.2699   1.2841   1.3348   1.4520   1.7185   2.2565   2.3390   2.3453
     2.4294   2.5602   2.6967   3.1066   3.2710   3.3351   3.3414   3.5213
     3.5498   3.8089   3.8136   4.3018   4.4617   4.9533   5.0131   5.3399
     5.7488   5.8606   6.2169   6.3814   7.8721   8.2566   8.3039   8.5631
     8.7450   8.8847   9.2916   9.3302   9.9626  10.2186  10.2496  10.3492
    10.4004  10.8325

          k = 0.2500-0.3750 0.0000 ( 28586 PWs)   bands (ev):

   -51.6304 -50.7682 -49.7349 -28.0604 -28.0407 -28.0195 -27.1961 -27.1623
   -27.1420 -26.1555 -26.1347 -26.1197 -21.8081 -19.6235 -18.7547 -18.6302
   -12.0987 -11.6147 -11.5809 -11.2441 -10.7197 -10.4616 -10.2553  -9.8180
    -9.5973  -8.3763  -7.1692  -7.1266  -6.8823  -5.1902  -5.0440  -4.9232
    -4.2718  -4.2415  -4.0271  -3.9975  -3.8376  -3.6975   0.4996   1.1904
     1.2568   1.3900   1.4774   1.6129   1.8073   2.2747   2.3420   2.3762
     2.5435   2.6476   2.7785   3.0174   3.2206   3.3734   3.4487   3.5567
     3.6443   3.7806   3.8282   4.3125   4.4628   4.9185   5.0059   5.3484
     5.6843   5.7624   6.1970   6.5121   7.8299   7.9855   8.1217   8.1382
     8.8297   9.0946   9.1261   9.2699   9.9264  10.0395  10.0629  10.1783
    10.4717  10.7202

          k = 0.2500-0.2500 0.0000 ( 28583 PWs)   bands (ev):

   -51.6308 -50.7685 -49.7353 -28.0614 -28.0209 -28.0201 -27.1971 -27.1433
   -27.1426 -26.1361 -26.1353 -26.1207 -21.8326 -19.6558 -18.7814 -18.6615
   -12.1872 -11.6453 -11.6241 -11.2736 -10.8025 -10.5086 -10.3131  -9.8958
    -9.6402  -8.3648  -7.1248  -7.1048  -6.7230  -5.1539  -4.9625  -4.7655
    -4.1890  -4.1888  -4.0004  -3.9649  -3.7076  -3.5631   0.8719   1.2229
     1.3495   1.4431   1.8317   1.9240   2.0195   2.3166   2.3644   2.4027
     2.8036   2.9134   2.9764   3.0738   3.3058   3.4165   3.4417   3.6917
     3.7285   3.8730   3.8783   4.3890   4.4139   4.8110   4.9594   5.3331
     5.5873   5.5898   6.2353   6.5725   7.4707   7.6950   7.7203   7.7854
     8.7047   8.7652   8.7817   9.4747   9.6568   9.8262   9.8363   9.8704
    10.3017  10.4808

          k = 0.2500-0.1250 0.0000 ( 28628 PWs)   bands (ev):

   -51.6312 -50.7689 -49.7357 -28.0625 -28.0216 -28.0002 -27.1981 -27.1439
   -27.1234 -26.1367 -26.1218 -26.1157 -21.8568 -19.6876 -18.8078 -18.6921
   -12.3204 -11.6755 -11.6266 -11.3278 -10.8897 -10.5291 -10.3916  -9.9595
    -9.6524  -8.3542  -7.0815  -6.9649  -6.6749  -5.0031  -4.8819  -4.7156
    -4.1267  -4.0167  -3.9052  -3.8796  -3.6758  -3.5455   1.0235   1.2216
     1.5123   1.6642   1.9693   2.1589   2.2827   2.3236   2.4642   2.7428
     2.8008   3.0489   3.1191   3.2459   3.4275   3.5146   3.5678   3.6859
     3.8045   4.0028   4.2767   4.3662   4.5177   4.6739   4.9141   5.1361
     5.3605   5.7795   6.2432   6.4702   7.1356   7.3756   7.4637   7.5941
     8.3875   8.4864   8.6876   9.1709   9.3492   9.5925   9.6153   9.7398
     9.9374   9.9977

          k = 0.3750 0.0000 0.0000 ( 28650 PWs)   bands (ev):

   -51.6310 -50.7687 -49.7354 -28.0617 -28.0424 -27.9910 -27.1974 -27.1639
   -27.1145 -26.1571 -26.1211 -26.1067 -21.8393 -19.6634 -18.7884 -18.6693
   -12.3590 -11.7004 -11.5783 -11.3837 -10.8852 -10.4837 -10.3940  -9.9549
    -9.5870  -8.4519  -7.0669  -6.7735  -6.7086  -4.8987  -4.8087  -4.7187
    -4.1036  -3.9142  -3.8259  -3.7442  -3.6200  -3.5984   0.5608   0.8794
     1.3690   1.6404   1.7795   1.9328   2.0036   2.0846   2.2344   2.4974
     2.6893   2.8706   2.9088   3.0463   3.2924   3.3060   3.4382   3.6939
     4.0002   4.0271   4.2626   4.3072   4.4179   4.5550   4.6550   4.9207
     5.1348   5.9490   6.0197   6.3344   7.3500   7.6140   7.9016   7.9392
     8.4165   8.8568   8.9341   9.0654   9.4944   9.5821   9.8116  10.0370
    10.0587  10.1391

          k = 0.3750 0.1250 0.0000 ( 28621 PWs)   bands (ev):

   -51.6308 -50.7685 -49.7353 -28.0613 -28.0419 -27.9993 -27.1970 -27.1634
   -27.1226 -26.1566 -26.1207 -26.1149 -21.8302 -19.6518 -18.7785 -18.6579
   -12.2844 -11.6752 -11.5772 -11.3404 -10.8425 -10.4657 -10.3603  -9.9204
    -9.5906  -8.4298  -7.0837  -6.9319  -6.7223  -4.9593  -4.9400  -4.7490
    -4.1517  -3.9858  -3.9442  -3.8205  -3.7029  -3.5813   0.5453   1.0091
     1.3659   1.5762   1.6367   1.8139   2.0335   2.1909   2.2355   2.4979
     2.6462   2.7232   3.0259   3.0925   3.1264   3.3916   3.4812   3.6213
     3.7129   3.9854   4.0502   4.3187   4.4100   4.5855   4.8177   5.1382
     5.2485   5.8344   6.1117   6.3463   7.4730   7.7086   7.9570   7.9938
     8.5153   8.9193   9.0209   9.1215   9.6580   9.8442   9.8630  10.0853
    10.1784  10.4726

          k = 0.3750 0.2500 0.0000 ( 28586 PWs)   bands (ev):

   -51.6304 -50.7682 -49.7349 -28.0604 -28.0407 -28.0195 -27.1961 -27.1623
   -27.1420 -26.1555 -26.1347 -26.1197 -21.8081 -19.6235 -18.7547 -18.6302
   -12.0987 -11.6147 -11.5809 -11.2441 -10.7197 -10.4616 -10.2553  -9.8180
    -9.5973  -8.3763  -7.1692  -7.1266  -6.8823  -5.1902  -5.0440  -4.9232
    -4.2718  -4.2415  -4.0271  -3.9975  -3.8376  -3.6975   0.4996   1.1904
     1.2568   1.3900   1.4774   1.6129   1.8073   2.2747   2.3420   2.3762
     2.5435   2.6476   2.7785   3.0174   3.2206   3.3734   3.4487   3.5567
     3.6443   3.7806   3.8282   4.3125   4.4628   4.9185   5.0059   5.3484
     5.6843   5.7624   6.1970   6.5121   7.8299   7.9855   8.1217   8.1382
     8.8297   9.0946   9.1261   9.2699   9.9264  10.0395  10.0629  10.1783
    10.4717  10.7202

          k = 0.3750 0.3750 0.0000 ( 28573 PWs)   bands (ev):

   -51.6300 -50.7678 -49.7345 -28.0594 -28.0397 -28.0393 -27.1952 -27.1614
   -27.1611 -26.1545 -26.1542 -26.1188 -21.7858 -19.5949 -18.7307 -18.6020
   -11.9092 -11.5793 -11.5578 -11.1663 -10.5734 -10.4593 -10.1693  -9.6889
    -9.5936  -8.3234  -7.3188  -7.1948  -7.0847  -5.3335  -5.1605  -5.1396
    -4.4093  -4.3731  -4.2233  -4.1085  -3.9104  -3.8897   0.3388   0.8187
     1.1017   1.3099   1.4731   1.5613   1.7638   1.8595   2.2739   2.3775
     2.4543   2.6350   2.7726   2.8366   3.1088   3.3060   3.5243   3.5424
     3.6319   3.7569   4.0743   4.3567   4.5214   5.2193   5.2213   5.4990
     5.7795   6.0250   6.3302   6.6643   8.2018   8.2038   8.3747   8.4691
     9.0981   9.2086   9.3390   9.3806   9.9473  10.2602  10.2717  10.3043
    10.4705  10.7179

          k = 0.3750-0.5000 0.0000 ( 28592 PWs)   bands (ev):

   -51.6299 -50.7676 -49.7343 -28.0590 -28.0478 -28.0390 -27.1948 -27.1692
   -27.1608 -26.1625 -26.1539 -26.1184 -21.7765 -19.5829 -18.7206 -18.5902
   -11.8360 -11.5539 -11.5503 -11.1404 -10.5273 -10.4326 -10.1444  -9.6458
    -9.5703  -8.3021  -7.3136  -7.3068  -7.1466  -5.3221  -5.3148  -5.1857
    -4.4147  -4.4019  -4.3892  -4.0705  -4.0568  -3.9167   0.1717   0.7411
     0.9989   1.2062   1.4484   1.6138   1.7070   1.7811   2.1690   2.2516
     2.4741   2.7017   2.7172   2.7730   3.2489   3.2742   3.4974   3.5279
     3.6528   3.7447   4.1824   4.4443   4.5146   5.3263   5.3475   5.4939
     5.8040   6.1438   6.5385   6.5953   8.2478   8.3632   8.5182   8.8274
     8.9431   9.2692   9.4079   9.5163  10.0133  10.2982  10.3451  10.4293
    10.4399  10.5933

          k = 0.3750-0.3750 0.0000 ( 28573 PWs)   bands (ev):

   -51.6300 -50.7678 -49.7345 -28.0594 -28.0397 -28.0393 -27.1952 -27.1614
   -27.1611 -26.1545 -26.1542 -26.1188 -21.7858 -19.5949 -18.7307 -18.6020
   -11.9092 -11.5793 -11.5578 -11.1663 -10.5734 -10.4593 -10.1693  -9.6889
    -9.5936  -8.3234  -7.3188  -7.1948  -7.0847  -5.3335  -5.1605  -5.1396
    -4.4093  -4.3731  -4.2233  -4.1085  -3.9104  -3.8897   0.3388   0.8187
     1.1017   1.3099   1.4731   1.5613   1.7638   1.8595   2.2739   2.3775
     2.4543   2.6350   2.7726   2.8366   3.1088   3.3060   3.5243   3.5424
     3.6319   3.7569   4.0743   4.3567   4.5214   5.2193   5.2213   5.4990
     5.7795   6.0250   6.3302   6.6643   8.2018   8.2038   8.3747   8.4691
     9.0981   9.2086   9.3390   9.3806   9.9473  10.2602  10.2717  10.3043
    10.4705  10.7179

          k = 0.3750-0.2500 0.0000 ( 28586 PWs)   bands (ev):

   -51.6304 -50.7682 -49.7349 -28.0604 -28.0407 -28.0195 -27.1961 -27.1623
   -27.1420 -26.1555 -26.1347 -26.1197 -21.8081 -19.6235 -18.7547 -18.6302
   -12.0987 -11.6147 -11.5809 -11.2441 -10.7197 -10.4616 -10.2553  -9.8180
    -9.5973  -8.3763  -7.1692  -7.1266  -6.8823  -5.1902  -5.0440  -4.9232
    -4.2718  -4.2415  -4.0271  -3.9975  -3.8376  -3.6975   0.4996   1.1904
     1.2568   1.3900   1.4774   1.6129   1.8073   2.2747   2.3420   2.3762
     2.5435   2.6476   2.7785   3.0174   3.2206   3.3734   3.4487   3.5567
     3.6443   3.7806   3.8282   4.3125   4.4628   4.9185   5.0059   5.3484
     5.6843   5.7624   6.1970   6.5121   7.8299   7.9855   8.1217   8.1382
     8.8297   9.0946   9.1261   9.2699   9.9264  10.0395  10.0629  10.1783
    10.4717  10.7202

          k = 0.3750-0.1250 0.0000 ( 28621 PWs)   bands (ev):

   -51.6308 -50.7685 -49.7353 -28.0613 -28.0419 -27.9993 -27.1970 -27.1634
   -27.1226 -26.1566 -26.1207 -26.1149 -21.8302 -19.6518 -18.7785 -18.6579
   -12.2844 -11.6752 -11.5772 -11.3404 -10.8425 -10.4657 -10.3603  -9.9204
    -9.5906  -8.4298  -7.0837  -6.9319  -6.7223  -4.9593  -4.9400  -4.7490
    -4.1517  -3.9858  -3.9442  -3.8205  -3.7029  -3.5813   0.5453   1.0091
     1.3659   1.5762   1.6367   1.8139   2.0335   2.1909   2.2355   2.4979
     2.6462   2.7232   3.0259   3.0925   3.1264   3.3916   3.4812   3.6213
     3.7129   3.9854   4.0502   4.3187   4.4100   4.5855   4.8177   5.1382
     5.2485   5.8344   6.1117   6.3463   7.4730   7.7086   7.9570   7.9938
     8.5153   8.9193   9.0209   9.1215   9.6580   9.8442   9.8630  10.0853
    10.1784  10.4726

          k =-0.5000 0.0000 0.0000 ( 28646 PWs)   bands (ev):

   -51.6308 -50.7685 -49.7353 -28.0612 -28.0508 -27.9906 -27.1970 -27.1720
   -27.1142 -26.1654 -26.1206 -26.1064 -21.8278 -19.6478 -18.7758 -18.6543
   -12.3692 -11.7073 -11.5353 -11.4037 -10.8809 -10.4233 -10.4071  -9.9434
    -9.5477  -8.4912  -7.0608  -6.7706  -6.6852  -4.9182  -4.7943  -4.6877
    -4.1044  -3.9197  -3.8311  -3.7156  -3.5942  -3.5754   0.3333   0.7408
     1.2913   1.4628   1.7112   1.8275   1.9829   2.0064   2.0595   2.2989
     2.6558   2.7268   2.8053   3.0521   3.1682   3.2124   3.5577   3.5815
     4.0256   4.0611   4.1717   4.2279   4.3408   4.4014   4.6609   4.9224
     5.0927   5.8552   6.1358   6.2230   7.3723   8.1089   8.1240   8.2889
     8.4238   8.4297   9.0771   9.2398   9.4511   9.5944  10.0312  10.1504
    10.2313  10.3583

          k =-0.5000 0.1250 0.0000 ( 28608 PWs)   bands (ev):

   -51.6306 -50.7684 -49.7351 -28.0608 -28.0503 -27.9990 -27.1966 -27.1715
   -27.1223 -26.1649 -26.1203 -26.1145 -21.8191 -19.6368 -18.7664 -18.6435
   -12.2891 -11.6760 -11.5365 -11.3514 -10.8341 -10.4107 -10.3646  -9.9047
    -9.5520  -8.4594  -7.0820  -6.8644  -6.7979  -4.9644  -4.8904  -4.8127
    -4.1691  -3.9544  -3.9326  -3.7845  -3.6968  -3.6648   0.3210   0.9378
     1.2914   1.4471   1.6180   1.6729   1.8992   2.1325   2.1953   2.2889
     2.6379   2.6457   2.9155   3.0026   3.0942   3.3734   3.4886   3.5808
     3.6834   3.8798   4.0098   4.3376   4.3617   4.5380   4.7725   5.1264
     5.2493   5.8322   6.1103   6.2499   7.5027   8.1272   8.1846   8.3641
     8.5213   8.5448   9.1304   9.2653   9.6798   9.8518  10.0717  10.2652
    10.4100  10.5057

          k =-0.5000 0.2500 0.0000 ( 28558 PWs)   bands (ev):

   -51.6302 -50.7680 -49.7347 -28.0599 -28.0490 -28.0191 -27.1957 -27.1703
   -27.1416 -26.1637 -26.1343 -26.1193 -21.7979 -19.6100 -18.7436 -18.6170
   -12.0816 -11.6033 -11.5427 -11.2365 -10.7005 -10.4207 -10.2374  -9.7926
    -9.5618  -8.3813  -7.1508  -7.0874  -7.0314  -5.1125  -5.0913  -5.0654
    -4.3124  -4.1708  -4.1376  -3.8955  -3.8732  -3.8710   0.2835   1.2555
     1.2699   1.2841   1.3348   1.4520   1.7185   2.2565   2.3390   2.3453
     2.4294   2.5602   2.6967   3.1066   3.2710   3.3351   3.3414   3.5213
     3.5498   3.8089   3.8136   4.3018   4.4617   4.9533   5.0131   5.3399
     5.7488   5.8606   6.2169   6.3814   7.8721   8.2566   8.3039   8.5631
     8.7450   8.8847   9.2916   9.3302   9.9626  10.2186  10.2496  10.3492
    10.4004  10.8325

          k =-0.5000 0.3750 0.0000 ( 28592 PWs)   bands (ev):

   -51.6299 -50.7676 -49.7343 -28.0590 -28.0478 -28.0390 -27.1948 -27.1692
   -27.1608 -26.1625 -26.1539 -26.1184 -21.7765 -19.5829 -18.7206 -18.5902
   -11.8360 -11.5539 -11.5503 -11.1404 -10.5273 -10.4326 -10.1444  -9.6458
    -9.5703  -8.3021  -7.3136  -7.3068  -7.1466  -5.3221  -5.3148  -5.1857
    -4.4147  -4.4019  -4.3892  -4.0705  -4.0568  -3.9167   0.1717   0.7411
     0.9989   1.2062   1.4484   1.6138   1.7070   1.7811   2.1690   2.2516
     2.4741   2.7017   2.7172   2.7730   3.2489   3.2742   3.4974   3.5279
     3.6528   3.7447   4.1824   4.4443   4.5146   5.3263   5.3475   5.4939
     5.8040   6.1438   6.5385   6.5953   8.2478   8.3632   8.5182   8.8274
     8.9431   9.2692   9.4079   9.5163  10.0133  10.2982  10.3451  10.4293
    10.4399  10.5933

          k =-0.5000-0.5000 0.0000 ( 28672 PWs)   bands (ev):

   -51.6297 -50.7674 -49.7342 -28.0586 -28.0472 -28.0472 -27.1945 -27.1687
   -27.1687 -26.1620 -26.1620 -26.1181 -21.7675 -19.5715 -18.7110 -18.5790
   -11.6963 -11.5601 -11.5601 -11.1063 -10.4381 -10.4381 -10.1222  -9.5734
    -9.5734  -8.2694  -7.3969  -7.3969  -7.1724  -5.4056  -5.4056  -5.2284
    -4.4963  -4.4963  -4.4327  -4.1485  -4.1485  -3.9205   0.0511   0.5964
     0.9083   1.0999   1.4505   1.6317   1.7062   1.7062   2.0541   2.1743
     2.4631   2.5544   2.7986   2.7986   3.1981   3.2993   3.5788   3.5788
     3.7194   3.7194   4.3215   4.5553   4.5553   5.4606   5.5403   5.5403
     5.7459   6.2975   6.6971   6.6971   8.3994   8.3994   8.6400   8.9815
     8.9815   9.4463   9.4463   9.6335   9.9945  10.1079  10.4559  10.4633
    10.4633  10.5569

     the Fermi energy is     6.6534 ev

!    total energy              =    -912.44857658 Ry
     Harris-Foulkes estimate   =    -912.44857654 Ry
     estimated scf accuracy    <          8.1E-11 Ry

     The total energy is the sum of the following terms:

     one-electron contribution =   -4423.05586817 Ry
     hartree contribution      =    2268.73686885 Ry
     xc contribution           =    -187.81441136 Ry
     ewald contribution        =    1429.68479474 Ry
     electric field correction =       0.00075133 Ry
     smearing contrib. (-TS)   =      -0.00071196 Ry

     convergence has been achieved in  27 iterations

     Forces acting on atoms (cartesian axes, Ry/au):

     atom    1 type  1   force =    -0.00000001   -0.00000000    0.00736997
     atom    2 type  3   force =    -0.00000001    0.00000002    0.03788442
     atom    3 type  2   force =    -0.00000000   -0.00000000   -0.09724887
     atom    4 type  3   force =    -0.00000000    0.00000002    0.01501250
     atom    5 type  3   force =    -0.00000000   -0.00000000    0.01501248
     atom    6 type  1   force =    -0.00000001   -0.00000000   -0.02100900
     atom    7 type  3   force =    -0.00000001   -0.00000002    0.05404192
     atom    8 type  2   force =    -0.00000000    0.00000000   -0.05935567
     atom    9 type  3   force =     0.00000001    0.00000000    0.01958957
     atom   10 type  3   force =     0.00000001    0.00000000    0.01958956
     atom   11 type  1   force =    -0.00000000   -0.00000001   -0.02900758
     atom   12 type  3   force =     0.00000002   -0.00000001    0.04145244
     atom   13 type  2   force =    -0.00000001   -0.00000001   -0.03781849
     atom   14 type  3   force =    -0.00000001   -0.00000000    0.02939128
     atom   15 type  3   force =     0.00000002   -0.00000000    0.02939128
     atom   16 type  1   force =    -0.00000000   -0.00000000   -0.04081749
     atom   17 type  3   force =    -0.00000000    0.00000001    0.01652168

     Total force =     0.163422     Total SCF correction =     0.000025


     Computing stress (Cartesian axis) and pressure

          total   stress  (Ry/bohr**3)                   (kbar)     P=  -27.48
  -0.00022377  -0.00000000  -0.00000000        -32.92     -0.00     -0.00
  -0.00000000  -0.00022377  -0.00000000         -0.00    -32.92     -0.00
  -0.00000000  -0.00000000  -0.00011298         -0.00     -0.00    -16.62


     BFGS Geometry Optimization

     number of scf cycles    =   1
     number of bfgs steps    =   0

     enthalpy new            =    -912.4485765785 Ry

     new trust radius        =       0.0972488698 bohr
     new conv_thr            =       0.0000000010 Ry

     new unit-cell volume =   2340.76725 a.u.^3 (   346.86591 Ang^3 )
     density =      4.08307 g/cm^3

CELL_PARAMETERS (angstrom)
   3.963701560  -0.000000001   0.000000000
  -0.000000001   3.963701572   0.000000000
   0.000000000   0.000000000  22.078000000

ATOMIC_POSITIONS (crystal)
Ba      -0.000000001  -0.000000000   0.230176647
O        0.499999999   0.500000003   0.226713904
Ti       0.500000000   0.500000000   0.321581127
O        0.500000000   0.000000003   0.318983616
O       -0.000000000   0.500000000   0.318983615
Ba      -0.000000001  -0.000000000   0.411849919
O        0.499999998   0.499999998   0.409454650
Ti       0.500000000   0.500000000   0.504842845
O        0.500000001   0.000000000   0.501446796
O        0.000000002   0.500000000   0.501446795
Ba      -0.000000000  -0.000000001   0.594011679
O        0.500000003   0.499999998   0.591506372
Ti       0.499999999   0.499999999   0.687712534
O        0.499999999  -0.000000000   0.684035202
O        0.000000003   0.500000000   0.684035202
Ba      -0.000000001  -0.000000000   0.776082087
O        0.500000000   0.500000002   0.773262292



     Writing output data file BaTiO3_7_Ba-O_P4mm.save/
     NEW-OLD atomic charge density approx. for the potential
 
     Adding external electric field

     Computed dipole along edir(3) : 
        Dipole                0.9542 Ry au,          2.4253 Debye
        Dipole field          0.0051 Ry au, 
 
        Potential amp.       -0.4221 Ry
        Total length         41.1999 bohr
 
     extrapolated charge  134.46626, renormalised to  136.00000

     total cpu time spent up to now is       71.5 secs

     Self-consistent Calculation

     iteration #  1     ecut=    80.00 Ry     beta= 0.30
     Davidson diagonalization with overlap
     c_bands:  1 eigenvalues not converged
     c_bands:  1 eigenvalues not converged
     ethr =  1.00E-06,  avg # of iterations = 17.4
 
     Adding external electric field

     Computed dipole along edir(3) : 
        Dipole              -19.1759 Ry au,        -48.7403 Debye
        Dipole field         -0.1029 Ry au, 
 
        Potential amp.        8.4827 Ry
        Total length         41.1999 bohr
 

     total cpu time spent up to now is       79.9 secs

     total energy              =    -841.97321381 Ry
     Harris-Foulkes estimate   =    -963.77884601 Ry
     estimated scf accuracy    <     135.11336466 Ry

     iteration #  2     ecut=    80.00 Ry     beta= 0.30
     Davidson diagonalization with overlap
     ethr =  1.00E-02,  avg # of iterations = 13.3
 
     Adding external electric field

     Computed dipole along edir(3) : 
        Dipole                8.6865 Ry au,         22.0788 Debye
        Dipole field          0.0466 Ry au, 
 
        Potential amp.       -3.8426 Ry
        Total length         41.1999 bohr
 

     total cpu time spent up to now is       89.0 secs

     total energy              =    -651.95174546 Ry
     Harris-Foulkes estimate   =   -1580.38399881 Ry
     estimated scf accuracy    <   32208.74420427 Ry

     iteration #  3     ecut=    80.00 Ry     beta= 0.30
     Davidson diagonalization with overlap
     ethr =  1.00E-02,  avg # of iterations = 11.5
 
     Adding external electric field

     Computed dipole along edir(3) : 
        Dipole                0.6044 Ry au,          1.5363 Debye
        Dipole field          0.0032 Ry au, 
 
        Potential amp.       -0.2674 Ry
        Total length         41.1999 bohr
 

     total cpu time spent up to now is       96.4 secs

     total energy              =    -817.20922328 Ry
     Harris-Foulkes estimate   =   -1017.52204045 Ry
     estimated scf accuracy    <    7161.78388132 Ry

     iteration #  4     ecut=    80.00 Ry     beta= 0.30
     Davidson diagonalization with overlap
     ethr =  1.00E-02,  avg # of iterations =  7.9
 
     Adding external electric field

     Computed dipole along edir(3) : 
        Dipole               -0.5307 Ry au,         -1.3488 Debye
        Dipole field         -0.0028 Ry au, 
 
        Potential amp.        0.2347 Ry
        Total length         41.1999 bohr
 

     total cpu time spent up to now is      101.0 secs

     total energy              =    -890.45216043 Ry
     Harris-Foulkes estimate   =    -944.91174988 Ry
     estimated scf accuracy    <    1998.38491089 Ry

     iteration #  5     ecut=    80.00 Ry     beta= 0.30
     Davidson diagonalization with overlap
     ethr =  1.00E-02,  avg # of iterations =  7.9
 
     Adding external electric field

     Computed dipole along edir(3) : 
        Dipole                0.4435 Ry au,          1.1274 Debye
        Dipole field          0.0024 Ry au, 
 
        Potential amp.       -0.1962 Ry
        Total length         41.1999 bohr
 

     total cpu time spent up to now is      105.1 secs

     total energy              =    -908.91510745 Ry
     Harris-Foulkes estimate   =    -918.47261361 Ry
     estimated scf accuracy    <     123.04473271 Ry

     iteration #  6     ecut=    80.00 Ry     beta= 0.30
     Davidson diagonalization with overlap
     ethr =  1.00E-02,  avg # of iterations =  4.1
 
     Adding external electric field

     Computed dipole along edir(3) : 
        Dipole                0.3125 Ry au,          0.7943 Debye
        Dipole field          0.0017 Ry au, 
 
        Potential amp.       -0.1382 Ry
        Total length         41.1999 bohr
 

     total cpu time spent up to now is      107.5 secs

     total energy              =    -913.81132737 Ry
     Harris-Foulkes estimate   =    -915.60236792 Ry
     estimated scf accuracy    <       9.06943821 Ry

     iteration #  7     ecut=    80.00 Ry     beta= 0.30
     Davidson diagonalization with overlap
     ethr =  6.67E-03,  avg # of iterations =  1.2
 
     Adding external electric field

     Computed dipole along edir(3) : 
        Dipole                0.2550 Ry au,          0.6482 Debye
        Dipole field          0.0014 Ry au, 
 
        Potential amp.       -0.1128 Ry
        Total length         41.1999 bohr
 

     total cpu time spent up to now is      109.1 secs

     total energy              =    -913.03957971 Ry
     Harris-Foulkes estimate   =    -914.01732512 Ry
     estimated scf accuracy    <       5.32913693 Ry

     iteration #  8     ecut=    80.00 Ry     beta= 0.30
     Davidson diagonalization with overlap
     ethr =  3.92E-03,  avg # of iterations =  5.4
 
     Adding external electric field

     Computed dipole along edir(3) : 
        Dipole                0.2740 Ry au,          0.6964 Debye
        Dipole field          0.0015 Ry au, 
 
        Potential amp.       -0.1212 Ry
        Total length         41.1999 bohr
 

     total cpu time spent up to now is      111.6 secs

     total energy              =    -913.22642511 Ry
     Harris-Foulkes estimate   =    -913.28230375 Ry
     estimated scf accuracy    <       7.07778838 Ry

     iteration #  9     ecut=    80.00 Ry     beta= 0.30
     Davidson diagonalization with overlap
     ethr =  3.92E-03,  avg # of iterations =  1.2
 
     Adding external electric field

     Computed dipole along edir(3) : 
        Dipole                0.3205 Ry au,          0.8145 Debye
        Dipole field          0.0017 Ry au, 
 
        Potential amp.       -0.1418 Ry
        Total length         41.1999 bohr
 

     total cpu time spent up to now is      113.2 secs

     total energy              =    -913.01101074 Ry
     Harris-Foulkes estimate   =    -913.26066593 Ry
     estimated scf accuracy    <       4.75643804 Ry

     iteration # 10     ecut=    80.00 Ry     beta= 0.30
     Davidson diagonalization with overlap
     ethr =  3.50E-03,  avg # of iterations =  1.0
 
     Adding external electric field

     Computed dipole along edir(3) : 
        Dipole                0.4737 Ry au,          1.2039 Debye
        Dipole field          0.0025 Ry au, 
 
        Potential amp.       -0.2095 Ry
        Total length         41.1999 bohr
 

     total cpu time spent up to now is      114.8 secs

     total energy              =    -912.10154178 Ry
     Harris-Foulkes estimate   =    -913.03461868 Ry
     estimated scf accuracy    <       3.63022679 Ry

     iteration # 11     ecut=    80.00 Ry     beta= 0.30
     Davidson diagonalization with overlap
     ethr =  2.67E-03,  avg # of iterations =  5.0
 
     Adding external electric field

     Computed dipole along edir(3) : 
        Dipole                0.3318 Ry au,          0.8433 Debye
        Dipole field          0.0018 Ry au, 
 
        Potential amp.       -0.1468 Ry
        Total length         41.1999 bohr
 

     total cpu time spent up to now is      117.7 secs

     total energy              =    -912.68221487 Ry
     Harris-Foulkes estimate   =    -912.97546894 Ry
     estimated scf accuracy    <      11.41699788 Ry

     iteration # 12     ecut=    80.00 Ry     beta= 0.30
     Davidson diagonalization with overlap
     ethr =  2.67E-03,  avg # of iterations =  1.0
 
     Adding external electric field

     Computed dipole along edir(3) : 
        Dipole                0.0312 Ry au,          0.0792 Debye
        Dipole field          0.0002 Ry au, 
 
        Potential amp.       -0.0138 Ry
        Total length         41.1999 bohr
 

     total cpu time spent up to now is      119.2 secs

     total energy              =    -912.61428280 Ry
     Harris-Foulkes estimate   =    -912.76053807 Ry
     estimated scf accuracy    <       5.86385736 Ry

     iteration # 13     ecut=    80.00 Ry     beta= 0.30
     Davidson diagonalization with overlap
     ethr =  2.67E-03,  avg # of iterations =  1.1
 
     Adding external electric field

     Computed dipole along edir(3) : 
        Dipole                0.6858 Ry au,          1.7432 Debye
        Dipole field          0.0037 Ry au, 
 
        Potential amp.       -0.3034 Ry
        Total length         41.1999 bohr
 

     total cpu time spent up to now is      120.8 secs

     total energy              =    -912.43267443 Ry
     Harris-Foulkes estimate   =    -912.69585494 Ry
     estimated scf accuracy    <       2.96145260 Ry

     iteration # 14     ecut=    80.00 Ry     beta= 0.30
     Davidson diagonalization with overlap
     ethr =  2.18E-03,  avg # of iterations =  5.1
 
     Adding external electric field

     Computed dipole along edir(3) : 
        Dipole                0.5478 Ry au,          1.3924 Debye
        Dipole field          0.0029 Ry au, 
 
        Potential amp.       -0.2423 Ry
        Total length         41.1999 bohr
 

     total cpu time spent up to now is      123.1 secs

     total energy              =    -911.83999148 Ry
     Harris-Foulkes estimate   =    -912.69974058 Ry
     estimated scf accuracy    <       4.31883393 Ry

     iteration # 15     ecut=    80.00 Ry     beta= 0.30
     Davidson diagonalization with overlap
     ethr =  2.18E-03,  avg # of iterations =  3.5
 
     Adding external electric field

     Computed dipole along edir(3) : 
        Dipole                0.4474 Ry au,          1.1372 Debye
        Dipole field          0.0024 Ry au, 
 
        Potential amp.       -0.1979 Ry
        Total length         41.1999 bohr
 

     total cpu time spent up to now is      125.3 secs

     total energy              =    -912.52966427 Ry
     Harris-Foulkes estimate   =    -912.63079776 Ry
     estimated scf accuracy    <       0.67978597 Ry

     iteration # 16     ecut=    80.00 Ry     beta= 0.30
     Davidson diagonalization with overlap
     ethr =  5.00E-04,  avg # of iterations =  4.3
 
     Adding external electric field

     Computed dipole along edir(3) : 
        Dipole                0.3173 Ry au,          0.8065 Debye
        Dipole field          0.0017 Ry au, 
 
        Potential amp.       -0.1404 Ry
        Total length         41.1999 bohr
 

     total cpu time spent up to now is      127.6 secs

     total energy              =    -912.47361209 Ry
     Harris-Foulkes estimate   =    -912.55205101 Ry
     estimated scf accuracy    <       0.40616624 Ry

     iteration # 17     ecut=    80.00 Ry     beta= 0.30
     Davidson diagonalization with overlap
     ethr =  2.99E-04,  avg # of iterations =  5.5
 
     Adding external electric field

     Computed dipole along edir(3) : 
        Dipole                0.2501 Ry au,          0.6357 Debye
        Dipole field          0.0013 Ry au, 
 
        Potential amp.       -0.1106 Ry
        Total length         41.1999 bohr
 

     total cpu time spent up to now is      130.3 secs

     total energy              =    -912.47604460 Ry
     Harris-Foulkes estimate   =    -912.50737587 Ry
     estimated scf accuracy    <       0.19308797 Ry

     iteration # 18     ecut=    80.00 Ry     beta= 0.30
     Davidson diagonalization with overlap
     ethr =  1.42E-04,  avg # of iterations =  9.2
 
     Adding external electric field

     Computed dipole along edir(3) : 
        Dipole                0.2798 Ry au,          0.7113 Debye
        Dipole field          0.0015 Ry au, 
 
        Potential amp.       -0.1238 Ry
        Total length         41.1999 bohr
 

     total cpu time spent up to now is      133.6 secs

     total energy              =    -912.47834010 Ry
     Harris-Foulkes estimate   =    -912.48774792 Ry
     estimated scf accuracy    <       0.07970847 Ry

     iteration # 19     ecut=    80.00 Ry     beta= 0.30
     Davidson diagonalization with overlap
     ethr =  5.86E-05,  avg # of iterations =  7.5

     negative rho (up, down):  3.061E-03 0.000E+00
 
     Adding external electric field

     Computed dipole along edir(3) : 
        Dipole                0.3079 Ry au,          0.7827 Debye
        Dipole field          0.0017 Ry au, 
 
        Potential amp.       -0.1362 Ry
        Total length         41.1999 bohr
 

     total cpu time spent up to now is      136.8 secs

     total energy              =    -912.47858748 Ry
     Harris-Foulkes estimate   =    -912.48194817 Ry
     estimated scf accuracy    <       0.04188620 Ry

     iteration # 20     ecut=    80.00 Ry     beta= 0.30
     Davidson diagonalization with overlap
     ethr =  3.08E-05,  avg # of iterations =  9.0

     negative rho (up, down):  4.292E-03 0.000E+00
 
     Adding external electric field

     Computed dipole along edir(3) : 
        Dipole                0.4374 Ry au,          1.1117 Debye
        Dipole field          0.0023 Ry au, 
 
        Potential amp.       -0.1935 Ry
        Total length         41.1999 bohr
 

     total cpu time spent up to now is      140.0 secs

     total energy              =    -912.47695188 Ry
     Harris-Foulkes estimate   =    -912.47921621 Ry
     estimated scf accuracy    <       0.02081719 Ry

     iteration # 21     ecut=    80.00 Ry     beta= 0.30
     Davidson diagonalization with overlap
     ethr =  1.53E-05,  avg # of iterations =  8.4
 
     Adding external electric field

     Computed dipole along edir(3) : 
        Dipole                0.3941 Ry au,          1.0017 Debye
        Dipole field          0.0021 Ry au, 
 
        Potential amp.       -0.1743 Ry
        Total length         41.1999 bohr
 

     total cpu time spent up to now is      143.3 secs

     total energy              =    -912.46935047 Ry
     Harris-Foulkes estimate   =    -912.48259752 Ry
     estimated scf accuracy    <       0.33356319 Ry

     iteration # 22     ecut=    80.00 Ry     beta= 0.30
     Davidson diagonalization with overlap
     ethr =  1.53E-05,  avg # of iterations =  5.1
 
     Adding external electric field

     Computed dipole along edir(3) : 
        Dipole                0.3958 Ry au,          1.0060 Debye
        Dipole field          0.0021 Ry au, 
 
        Potential amp.       -0.1751 Ry
        Total length         41.1999 bohr
 

     total cpu time spent up to now is      145.6 secs

     total energy              =    -912.47769561 Ry
     Harris-Foulkes estimate   =    -912.47887639 Ry
     estimated scf accuracy    <       0.02136884 Ry

     iteration # 23     ecut=    80.00 Ry     beta= 0.30
     Davidson diagonalization with overlap
     ethr =  1.53E-05,  avg # of iterations =  1.1
 
     Adding external electric field

     Computed dipole along edir(3) : 
        Dipole                0.4012 Ry au,          1.0198 Debye
        Dipole field          0.0022 Ry au, 
 
        Potential amp.       -0.1775 Ry
        Total length         41.1999 bohr
 

     total cpu time spent up to now is      147.4 secs

     total energy              =    -912.47805745 Ry
     Harris-Foulkes estimate   =    -912.47803234 Ry
     estimated scf accuracy    <       0.01096001 Ry

     iteration # 24     ecut=    80.00 Ry     beta= 0.30
     Davidson diagonalization with overlap
     ethr =  8.06E-06,  avg # of iterations =  4.3
 
     Adding external electric field

     Computed dipole along edir(3) : 
        Dipole                0.4124 Ry au,          1.0483 Debye
        Dipole field          0.0022 Ry au, 
 
        Potential amp.       -0.1824 Ry
        Total length         41.1999 bohr
 

     total cpu time spent up to now is      149.7 secs

     total energy              =    -912.47762639 Ry
     Harris-Foulkes estimate   =    -912.47829255 Ry
     estimated scf accuracy    <       0.01924869 Ry

     iteration # 25     ecut=    80.00 Ry     beta= 0.30
     Davidson diagonalization with overlap
     ethr =  8.06E-06,  avg # of iterations =  3.0
 
     Adding external electric field

     Computed dipole along edir(3) : 
        Dipole                0.4189 Ry au,          1.0648 Debye
        Dipole field          0.0022 Ry au, 
 
        Potential amp.       -0.1853 Ry
        Total length         41.1999 bohr
 

     total cpu time spent up to now is      151.8 secs

     total energy              =    -912.47764348 Ry
     Harris-Foulkes estimate   =    -912.47775608 Ry
     estimated scf accuracy    <       0.00672487 Ry

     iteration # 26     ecut=    80.00 Ry     beta= 0.30
     Davidson diagonalization with overlap
     ethr =  4.94E-06,  avg # of iterations =  1.8
 
     Adding external electric field

     Computed dipole along edir(3) : 
        Dipole                0.4232 Ry au,          1.0756 Debye
        Dipole field          0.0023 Ry au, 
 
        Potential amp.       -0.1872 Ry
        Total length         41.1999 bohr
 

     total cpu time spent up to now is      153.7 secs

     total energy              =    -912.47766882 Ry
     Harris-Foulkes estimate   =    -912.47765907 Ry
     estimated scf accuracy    <       0.00284759 Ry

     iteration # 27     ecut=    80.00 Ry     beta= 0.30
     Davidson diagonalization with overlap
     ethr =  2.09E-06,  avg # of iterations =  4.8
 
     Adding external electric field

     Computed dipole along edir(3) : 
        Dipole                0.4335 Ry au,          1.1018 Debye
        Dipole field          0.0023 Ry au, 
 
        Potential amp.       -0.1918 Ry
        Total length         41.1999 bohr
 

     total cpu time spent up to now is      156.3 secs

     total energy              =    -912.47760669 Ry
     Harris-Foulkes estimate   =    -912.47763370 Ry
     estimated scf accuracy    <       0.00318340 Ry

     iteration # 28     ecut=    80.00 Ry     beta= 0.30
     Davidson diagonalization with overlap
     ethr =  2.09E-06,  avg # of iterations =  2.6
 
     Adding external electric field

     Computed dipole along edir(3) : 
        Dipole                0.4416 Ry au,          1.1224 Debye
        Dipole field          0.0024 Ry au, 
 
        Potential amp.       -0.1953 Ry
        Total length         41.1999 bohr
 

     total cpu time spent up to now is      158.4 secs

     total energy              =    -912.47761889 Ry
     Harris-Foulkes estimate   =    -912.47759150 Ry
     estimated scf accuracy    <       0.00068058 Ry

     iteration # 29     ecut=    80.00 Ry     beta= 0.30
     Davidson diagonalization with overlap
     ethr =  5.00E-07,  avg # of iterations =  1.3
 
     Adding external electric field

     Computed dipole along edir(3) : 
        Dipole                0.4490 Ry au,          1.1412 Debye
        Dipole field          0.0024 Ry au, 
 
        Potential amp.       -0.1986 Ry
        Total length         41.1999 bohr
 

     total cpu time spent up to now is      160.2 secs

     total energy              =    -912.47761573 Ry
     Harris-Foulkes estimate   =    -912.47758854 Ry
     estimated scf accuracy    <       0.00037338 Ry

     iteration # 30     ecut=    80.00 Ry     beta= 0.30
     Davidson diagonalization with overlap
     ethr =  2.75E-07,  avg # of iterations =  1.2
 
     Adding external electric field

     Computed dipole along edir(3) : 
        Dipole                0.4542 Ry au,          1.1543 Debye
        Dipole field          0.0024 Ry au, 
 
        Potential amp.       -0.2009 Ry
        Total length         41.1999 bohr
 

     total cpu time spent up to now is      161.8 secs

     total energy              =    -912.47761731 Ry
     Harris-Foulkes estimate   =    -912.47759425 Ry
     estimated scf accuracy    <       0.00007522 Ry

     iteration # 31     ecut=    80.00 Ry     beta= 0.30
     Davidson diagonalization with overlap
     ethr =  5.53E-08,  avg # of iterations =  1.9
 
     Adding external electric field

     Computed dipole along edir(3) : 
        Dipole                0.4553 Ry au,          1.1574 Debye
        Dipole field          0.0024 Ry au, 
 
        Potential amp.       -0.2014 Ry
        Total length         41.1999 bohr
 

     total cpu time spent up to now is      163.8 secs

     total energy              =    -912.47761997 Ry
     Harris-Foulkes estimate   =    -912.47761428 Ry
     estimated scf accuracy    <       0.00000327 Ry

     iteration # 32     ecut=    80.00 Ry     beta= 0.30
     Davidson diagonalization with overlap
[...]
     9.1566   9.1762   9.2698   9.3157   9.5545   9.5743   9.6828  11.1737
    11.4737  11.4889

          k = 0.2517 0.3776 0.0000 ( 28186 PWs)   bands (ev):

   -50.2861 -50.2797 -50.2011 -26.7497 -26.7437 -26.7257 -26.7198 -26.6466
   -26.6403 -26.6329 -26.6099 -26.5678 -19.8229 -19.8192 -18.6532 -18.6071
   -10.9044 -10.8626 -10.5746 -10.4141 -10.4110 -10.0896 -10.0524 -10.0213
    -9.8564  -9.8165  -5.3199  -5.3169  -5.2044  -5.1990  -4.8968  -4.8872
    -4.3125  -4.2653  -4.0518  -4.0515  -3.7993  -3.7269   1.6570   1.6632
     1.8660   2.3116   2.3419   2.3563   2.5051   2.5786   2.6850   2.7428
     2.8717   3.0193   3.2342   3.2531   3.3333   3.3391   3.5799   4.0597
     4.3131   4.4763   4.7798   4.8320   4.9911   5.0708   5.0723   5.1063
     5.2029   5.3303   5.3456   5.6526   9.0276   9.3149   9.4094   9.4437
     9.4491   9.5637   9.6966   9.7026   9.8163   9.8797  10.1065  11.0828
    11.2026  11.4664

          k = 0.2517-0.5034 0.0000 ( 28186 PWs)   bands (ev):

   -50.2859 -50.2795 -50.2009 -26.7590 -26.7531 -26.7252 -26.7193 -26.6460
   -26.6419 -26.6398 -26.6094 -26.5674 -19.8104 -19.8067 -18.6373 -18.5938
   -10.9010 -10.8384 -10.5148 -10.3697 -10.3665 -10.0648 -10.0340 -10.0177
    -9.8523  -9.8238  -5.3572  -5.3530  -5.1082  -5.1013  -5.0598  -5.0562
    -4.3273  -4.2419  -4.1810  -3.9163  -3.9043  -3.8465   1.4180   1.4314
     1.6705   2.2468   2.3180   2.4085   2.4681   2.4771   2.6610   2.7295
     2.7528   2.9291   3.1953   3.2420   3.2875   3.2995   3.6098   4.1208
     4.4753   4.5834   4.8322   4.8547   4.9714   4.9812   4.9856   5.0163
     5.1686   5.3129   5.3544   5.7440   9.0585   9.3632   9.6144   9.6392
     9.6632   9.7459   9.7476   9.8912  10.0266  10.4535  10.5285  10.6303
    10.7243  11.4938

          k = 0.2517-0.3776 0.0000 ( 28186 PWs)   bands (ev):

   -50.2861 -50.2797 -50.2011 -26.7497 -26.7437 -26.7257 -26.7198 -26.6466
   -26.6403 -26.6329 -26.6099 -26.5678 -19.8229 -19.8192 -18.6532 -18.6071
   -10.9044 -10.8626 -10.5746 -10.4141 -10.4110 -10.0896 -10.0524 -10.0213
    -9.8564  -9.8165  -5.3199  -5.3169  -5.2044  -5.1990  -4.8968  -4.8872
    -4.3125  -4.2653  -4.0518  -4.0515  -3.7993  -3.7269   1.6570   1.6632
     1.8660   2.3116   2.3419   2.3563   2.5051   2.5786   2.6850   2.7428
     2.8717   3.0193   3.2342   3.2531   3.3333   3.3391   3.5799   4.0597
     4.3131   4.4763   4.7798   4.8320   4.9911   5.0708   5.0723   5.1063
     5.2029   5.3303   5.3456   5.6526   9.0276   9.3149   9.4094   9.4437
     9.4491   9.5637   9.6966   9.7026   9.8163   9.8797  10.1065  11.0828
    11.2026  11.4664

          k = 0.2517-0.2517 0.0000 ( 28205 PWs)   bands (ev):

   -50.2865 -50.2802 -50.2015 -26.7275 -26.7264 -26.7216 -26.7205 -26.6478
   -26.6415 -26.6114 -26.6106 -26.5689 -19.8528 -19.8491 -18.6911 -18.6389
   -10.9940 -10.9778 -10.7057 -10.4712 -10.4670 -10.1386 -10.0773 -10.0265
    -9.8566  -9.8009  -5.2430  -5.2384  -5.1764  -5.1725  -4.7440  -4.7308
    -4.2514  -4.1198  -4.0775  -3.9754  -3.6705  -3.6005   1.9954   2.0319
     2.1623   2.5309   2.5342   2.5551   2.6003   2.7942   2.8503   2.8860
     3.0935   3.2071   3.3061   3.3245   3.4628   3.4949   3.5736   3.9959
     4.1659   4.4109   4.6271   4.7164   4.9833   5.1357   5.1788   5.2143
     5.2382   5.2604   5.3547   5.3877   8.9296   8.9607   8.9830   9.0384
     9.1566   9.1762   9.2698   9.3157   9.5545   9.5743   9.6828  11.1737
    11.4737  11.4889

          k = 0.2517-0.1259 0.0000 ( 28247 PWs)   bands (ev):

   -50.2870 -50.2806 -50.2020 -26.7282 -26.7223 -26.7041 -26.6981 -26.6491
   -26.6428 -26.6121 -26.5890 -26.5699 -19.8823 -19.8785 -18.7283 -18.6703
   -11.1524 -11.1378 -10.8553 -10.4794 -10.4718 -10.1548 -10.0979 -10.0212
    -9.8469  -9.7889  -5.1673  -5.1640  -5.0178  -5.0142  -4.7035  -4.6998
    -4.0536  -3.9861  -3.9691  -3.9461  -3.6261  -3.6107   2.0584   2.1981
     2.3725   2.5423   2.6230   2.7999   2.8241   2.9249   3.0522   3.2394
     3.4030   3.4191   3.4794   3.6030   3.6061   3.7757   3.8148   4.1148
     4.2322   4.4306   4.5945   4.5973   4.7942   4.8061   4.8967   5.0846
     5.2811   5.3437   5.3814   5.4641   8.4438   8.6781   8.7215   8.8214
     8.8475   8.8861   8.9652   9.0857   9.2302   9.4160   9.5287  10.7963
    11.0681  11.1269

          k = 0.3776-0.0000 0.0000 ( 28262 PWs)   bands (ev):

   -50.2867 -50.2803 -50.2017 -26.7517 -26.7458 -26.6937 -26.6877 -26.6481
   -26.6419 -26.6347 -26.5789 -26.5692 -19.8603 -19.8566 -18.6982 -18.6478
   -11.2075 -11.1682 -10.8583 -10.4020 -10.3973 -10.1015 -10.0556 -10.0532
    -9.9201  -9.8960  -5.1488  -5.1453  -4.7672  -4.7669  -4.7635  -4.7634
    -3.9935  -3.9604  -3.8340  -3.7657  -3.6460  -3.6421   1.6903   1.7133
     1.9401   2.0023   2.3147   2.3837   2.8744   2.9728   3.0783   3.1075
     3.2193   3.3576   3.4361   3.4558   3.4699   3.4702   3.7494   3.9665
     4.1077   4.1499   4.3883   4.5948   4.7118   4.7318   4.8253   4.8264
     5.1763   5.3683   5.4128   5.6845   8.2957   8.8499   9.2146   9.2193
     9.2831   9.3295   9.3811   9.4155   9.4260   9.6778   9.7511  10.4542
    10.6748  10.8650

          k = 0.3776 0.1259 0.0000 ( 28246 PWs)   bands (ev):

   -50.2865 -50.2802 -50.2015 -26.7511 -26.7452 -26.7031 -26.6971 -26.6477
   -26.6414 -26.6342 -26.5880 -26.5688 -19.8494 -19.8457 -18.6851 -18.6360
   -11.1220 -11.0819 -10.7769 -10.4019 -10.3994 -10.0904 -10.0632 -10.0449
    -9.9017  -9.8730  -5.2006  -5.1970  -4.9632  -4.9595  -4.7418  -4.7370
    -4.0920  -4.0335  -3.9425  -3.8757  -3.6816  -3.6273   1.6843   1.6987
     1.9145   2.1899   2.3250   2.4387   2.7075   2.8442   2.9762   3.1132
     3.1723   3.2187   3.2889   3.3365   3.3785   3.5884   3.6196   4.0626
     4.2540   4.2548   4.4633   4.5418   4.7524   4.8539   4.9080   4.9225
     5.0581   5.2701   5.3751   5.6712   8.5176   8.9806   9.2369   9.2596
     9.3683   9.4107   9.4696   9.4760   9.5074   9.7675   9.8204  10.7477
    10.9460  11.1276

          k = 0.3776 0.2517 0.0000 ( 28186 PWs)   bands (ev):

   -50.2861 -50.2797 -50.2011 -26.7497 -26.7437 -26.7257 -26.7198 -26.6466
   -26.6403 -26.6329 -26.6099 -26.5678 -19.8229 -19.8192 -18.6532 -18.6071
   -10.9044 -10.8626 -10.5746 -10.4141 -10.4110 -10.0896 -10.0524 -10.0213
    -9.8564  -9.8165  -5.3199  -5.3169  -5.2044  -5.1990  -4.8968  -4.8872
    -4.3125  -4.2653  -4.0518  -4.0515  -3.7993  -3.7269   1.6570   1.6632
     1.8660   2.3116   2.3419   2.3563   2.5051   2.5786   2.6850   2.7428
     2.8717   3.0193   3.2342   3.2531   3.3333   3.3391   3.5799   4.0597
     4.3131   4.4763   4.7798   4.8320   4.9911   5.0708   5.0723   5.1063
     5.2029   5.3303   5.3456   5.6526   9.0276   9.3149   9.4094   9.4437
     9.4491   9.5637   9.6966   9.7026   9.8163   9.8797  10.1065  11.0828
    11.2026  11.4664

          k = 0.3776 0.3776 0.0000 ( 28157 PWs)   bands (ev):

   -50.2856 -50.2793 -50.2007 -26.7485 -26.7480 -26.7425 -26.7420 -26.6454
   -26.6392 -26.6318 -26.6314 -26.5668 -19.7961 -19.7924 -18.6207 -18.5778
   -10.6756 -10.6306 -10.4251 -10.4175 -10.3688 -10.0749 -10.0469 -10.0112
    -9.8127  -9.7591  -5.4168  -5.4031  -5.3723  -5.3625  -5.1280  -5.1199
    -4.4911  -4.3972  -4.2829  -4.1574  -3.9205  -3.8485   1.5013   1.5204
     1.7414   1.9482   1.9522   2.0690   2.1985   2.3767   2.3801   2.8873
     2.9462   3.0840   3.1006   3.1757   3.2822   3.4092   3.4948   4.1407
     4.4947   4.7722   4.9815   5.0485   5.1061   5.1605   5.2769   5.2855
     5.3830   5.4977   5.6114   5.6793   9.5045   9.5332   9.6777   9.6843
     9.6904   9.7213   9.9738   9.9897   9.9921  10.3006  10.5083  11.1607
    11.2213  11.5176

          k = 0.3776-0.5034 0.0000 ( 28200 PWs)   bands (ev):

   -50.2855 -50.2791 -50.2005 -26.7575 -26.7515 -26.7476 -26.7417 -26.6450
   -26.6405 -26.6388 -26.6310 -26.5664 -19.7849 -19.7811 -18.6071 -18.5655
   -10.6015 -10.5518 -10.3910 -10.3864 -10.2934 -10.0674 -10.0465 -10.0194
    -9.7971  -9.7352  -5.4719  -5.4506  -5.3541  -5.3420  -5.2971  -5.2827
    -4.4837  -4.4628  -4.4457  -4.1110  -4.0876  -3.8543   1.3190   1.3388
     1.5831   1.8669   1.8710   1.9248   2.1157   2.3333   2.3834   2.9121
     2.9750   3.0114   3.1623   3.1648   3.2523   3.3742   3.5525   4.1755
     4.5673   5.0144   5.0686   5.1003   5.1041   5.2603   5.3357   5.3392
     5.3826   5.5549   5.7065   5.7478   9.5456   9.7233   9.7306   9.8364
     9.8527   9.8685  10.0287  10.1219  10.1347  10.7470  10.8520  10.8689
    10.9615  11.5901

          k = 0.3776-0.3776 0.0000 ( 28157 PWs)   bands (ev):

   -50.2856 -50.2793 -50.2007 -26.7485 -26.7480 -26.7425 -26.7420 -26.6454
   -26.6392 -26.6318 -26.6314 -26.5668 -19.7961 -19.7924 -18.6207 -18.5778
   -10.6756 -10.6306 -10.4251 -10.4175 -10.3688 -10.0749 -10.0469 -10.0112
    -9.8127  -9.7591  -5.4168  -5.4031  -5.3723  -5.3625  -5.1280  -5.1199
    -4.4911  -4.3972  -4.2829  -4.1574  -3.9205  -3.8485   1.5013   1.5204
     1.7414   1.9482   1.9522   2.0690   2.1985   2.3767   2.3801   2.8873
     2.9462   3.0840   3.1006   3.1757   3.2822   3.4092   3.4948   4.1407
     4.4947   4.7722   4.9815   5.0485   5.1061   5.1605   5.2769   5.2855
     5.3830   5.4977   5.6114   5.6793   9.5045   9.5332   9.6777   9.6843
     9.6904   9.7213   9.9738   9.9897   9.9921  10.3006  10.5083  11.1607
    11.2213  11.5176

          k = 0.3776-0.2517 0.0000 ( 28186 PWs)   bands (ev):

   -50.2861 -50.2797 -50.2011 -26.7497 -26.7437 -26.7257 -26.7198 -26.6466
   -26.6403 -26.6329 -26.6099 -26.5678 -19.8229 -19.8192 -18.6532 -18.6071
   -10.9044 -10.8626 -10.5746 -10.4141 -10.4110 -10.0896 -10.0524 -10.0213
    -9.8564  -9.8165  -5.3199  -5.3169  -5.2044  -5.1990  -4.8968  -4.8872
    -4.3125  -4.2653  -4.0518  -4.0515  -3.7993  -3.7269   1.6570   1.6632
     1.8660   2.3116   2.3419   2.3563   2.5051   2.5786   2.6850   2.7428
     2.8717   3.0193   3.2342   3.2531   3.3333   3.3391   3.5799   4.0597
     4.3131   4.4763   4.7798   4.8320   4.9911   5.0708   5.0723   5.1063
     5.2029   5.3303   5.3456   5.6526   9.0276   9.3149   9.4094   9.4437
     9.4491   9.5637   9.6966   9.7026   9.8163   9.8797  10.1065  11.0828
    11.2026  11.4664

          k = 0.3776-0.1259 0.0000 ( 28246 PWs)   bands (ev):

   -50.2865 -50.2802 -50.2015 -26.7511 -26.7452 -26.7031 -26.6971 -26.6477
   -26.6414 -26.6342 -26.5880 -26.5688 -19.8494 -19.8457 -18.6851 -18.6360
   -11.1220 -11.0819 -10.7769 -10.4019 -10.3994 -10.0904 -10.0632 -10.0449
    -9.9017  -9.8730  -5.2006  -5.1970  -4.9632  -4.9595  -4.7418  -4.7370
    -4.0920  -4.0335  -3.9425  -3.8757  -3.6816  -3.6273   1.6843   1.6987
     1.9145   2.1899   2.3250   2.4387   2.7075   2.8442   2.9762   3.1132
     3.1723   3.2187   3.2889   3.3365   3.3785   3.5884   3.6196   4.0626
     4.2540   4.2548   4.4633   4.5418   4.7524   4.8539   4.9080   4.9225
     5.0581   5.2701   5.3751   5.6712   8.5176   8.9806   9.2369   9.2596
     9.3683   9.4107   9.4696   9.4760   9.5074   9.7675   9.8204  10.7477
    10.9460  11.1276

          k =-0.5034 0.0000 0.0000 ( 28230 PWs)   bands (ev):

   -50.2865 -50.2802 -50.2015 -26.7612 -26.7552 -26.6933 -26.6873 -26.6475
   -26.6438 -26.6413 -26.5785 -26.5687 -19.8461 -19.8423 -18.6791 -18.6330
   -11.2332 -11.1693 -10.8186 -10.3706 -10.3463 -10.0987 -10.0679  -9.9917
    -9.9499  -9.9405  -5.1515  -5.1481  -4.7513  -4.7475  -4.7409  -4.7374
    -4.0302  -3.9222  -3.8703  -3.7347  -3.6113  -3.6068   1.4525   1.4732
     1.7205   1.8256   2.1600   2.3081   2.8664   2.9261   3.0006   3.1113
     3.1318   3.1672   3.2954   3.3365   3.3892   3.4657   3.6931   3.8305
     3.9896   4.0915   4.2844   4.6270   4.7053   4.8391   4.8537   4.8591
     5.1018   5.2697   5.3745   5.7472   8.3211   8.8691   9.3864   9.4544
     9.4588   9.5605   9.5961   9.6481   9.9015  10.0629  10.0909  10.2932
    10.3470  10.6720

          k =-0.5034 0.1259 0.0000 ( 28206 PWs)   bands (ev):

   -50.2864 -50.2800 -50.2014 -26.7605 -26.7546 -26.7027 -26.6967 -26.6471
   -26.6432 -26.6409 -26.5876 -26.5683 -19.8357 -19.8320 -18.6670 -18.6216
   -11.1419 -11.0778 -10.7326 -10.3669 -10.3515 -10.0855 -10.0503 -10.0065
    -9.9205  -9.9073  -5.2142  -5.2107  -4.8573  -4.8530  -4.8395  -4.8354
    -4.1388  -3.9832  -3.9419  -3.7674  -3.7461  -3.7043   1.4453   1.4617
     1.7044   2.0845   2.2797   2.3145   2.7350   2.8466   2.8751   3.0009
     3.0294   3.1968   3.2407   3.2585   3.2722   3.5125   3.5395   4.0367
     4.1519   4.4017   4.4310   4.4824   4.8378   4.8393   4.8777   4.9103
     4.9209   5.1748   5.3507   5.7447   8.5461   9.0116   9.4812   9.4893
     9.4912   9.5946   9.6433   9.7081   9.9378  10.1941  10.2172  10.4167
    10.4578  11.0042

          k =-0.5034 0.2517 0.0000 ( 28186 PWs)   bands (ev):

   -50.2859 -50.2795 -50.2009 -26.7590 -26.7531 -26.7252 -26.7193 -26.6460
   -26.6419 -26.6398 -26.6094 -26.5674 -19.8104 -19.8067 -18.6373 -18.5938
   -10.9010 -10.8384 -10.5148 -10.3697 -10.3665 -10.0648 -10.0340 -10.0177
    -9.8523  -9.8238  -5.3572  -5.3530  -5.1082  -5.1013  -5.0598  -5.0562
    -4.3273  -4.2419  -4.1810  -3.9163  -3.9043  -3.8465   1.4180   1.4314
     1.6705   2.2468   2.3180   2.4085   2.4681   2.4771   2.6610   2.7295
     2.7528   2.9291   3.1953   3.2420   3.2875   3.2995   3.6098   4.1208
     4.4753   4.5834   4.8322   4.8547   4.9714   4.9812   4.9856   5.0163
     5.1686   5.3129   5.3544   5.7440   9.0585   9.3632   9.6144   9.6392
     9.6632   9.7459   9.7476   9.8912  10.0266  10.4535  10.5285  10.6303
    10.7243  11.4938

          k =-0.5034 0.3776 0.0000 ( 28200 PWs)   bands (ev):

   -50.2855 -50.2791 -50.2005 -26.7575 -26.7515 -26.7476 -26.7417 -26.6450
   -26.6405 -26.6388 -26.6310 -26.5664 -19.7849 -19.7811 -18.6071 -18.5655
   -10.6015 -10.5518 -10.3910 -10.3864 -10.2934 -10.0674 -10.0465 -10.0194
    -9.7971  -9.7352  -5.4719  -5.4506  -5.3541  -5.3420  -5.2971  -5.2827
    -4.4837  -4.4628  -4.4457  -4.1110  -4.0876  -3.8543   1.3190   1.3388
     1.5831   1.8669   1.8710   1.9248   2.1157   2.3333   2.3834   2.9121
     2.9750   3.0114   3.1623   3.1648   3.2523   3.3742   3.5525   4.1755
     4.5673   5.0144   5.0686   5.1003   5.1041   5.2603   5.3357   5.3392
     5.3826   5.5549   5.7065   5.7478   9.5456   9.7233   9.7306   9.8364
     9.8527   9.8685  10.0287  10.1219  10.1347  10.7470  10.8520  10.8689
    10.9615  11.5901

          k =-0.5034-0.5034 0.0000 ( 28120 PWs)   bands (ev):

   -50.2853 -50.2789 -50.2003 -26.7568 -26.7568 -26.7509 -26.7509 -26.6445
   -26.6399 -26.6399 -26.6383 -26.5660 -19.7742 -19.7705 -18.5944 -18.5537
   -10.4056 -10.4056 -10.3961 -10.3961 -10.2740 -10.0529 -10.0472 -10.0472
    -9.7870  -9.6968  -5.4549  -5.4549  -5.4529  -5.4399  -5.4399  -5.4209
    -4.5793  -4.5793  -4.4617  -4.1866  -4.1866  -3.8512   1.1969   1.2192
     1.4685   1.7044   1.7081   1.8119   1.9522   2.3114   2.3880   2.9952
     2.9952   3.0931   3.1352   3.1352   3.1640   3.5000   3.5000   4.1708
     4.5545   5.1984   5.1984   5.2243   5.2243   5.4233   5.4233   5.4673
     5.4690   5.7465   5.7465   5.8412   9.7466   9.7466   9.8958   9.8958
     9.9581   9.9917  10.1640  10.1640  10.2595  10.9164  10.9164  11.0095
    11.0095  11.5290

     the Fermi energy is     6.8707 ev

!    total energy              =    -912.51050948 Ry
     Harris-Foulkes estimate   =    -912.51050948 Ry
     estimated scf accuracy    <          8.4E-12 Ry

     The total energy is the sum of the following terms:

     one-electron contribution =   -4654.23533591 Ry
     hartree contribution      =    2386.31415096 Ry
     xc contribution           =    -188.20756926 Ry
     ewald contribution        =    1543.61824473 Ry
     electric field correction =       0.00000000 Ry
     smearing contrib. (-TS)   =      -0.00000000 Ry

     convergence has been achieved in  18 iterations

     Forces acting on atoms (cartesian axes, Ry/au):

     atom    1 type  1   force =     0.00000000    0.00000000   -0.00016341
     atom    2 type  3   force =     0.00000000   -0.00000000   -0.00027281
     atom    3 type  2   force =    -0.00000000    0.00000000   -0.00009152
     atom    4 type  3   force =     0.00000000   -0.00000000   -0.00002639
     atom    5 type  3   force =     0.00000000    0.00000000   -0.00002640
     atom    6 type  1   force =     0.00000000    0.00000000    0.00010678
     atom    7 type  3   force =    -0.00000000    0.00000000    0.00047706
     atom    8 type  2   force =    -0.00000000    0.00000001    0.00034822
     atom    9 type  3   force =     0.00000000   -0.00000001    0.00003029
     atom   10 type  3   force =     0.00000001   -0.00000000    0.00003028
     atom   11 type  1   force =     0.00000000    0.00000000   -0.00005173
     atom   12 type  3   force =    -0.00000000   -0.00000000    0.00018842
     atom   13 type  2   force =    -0.00000000    0.00000000   -0.00009855
     atom   14 type  3   force =    -0.00000000   -0.00000000   -0.00010064
     atom   15 type  3   force =    -0.00000000    0.00000000   -0.00010063
     atom   16 type  1   force =    -0.00000000   -0.00000000   -0.00003806
     atom   17 type  3   force =    -0.00000000   -0.00000000   -0.00021093

     Total force =     0.000766     Total SCF correction =     0.000008


     Computing stress (Cartesian axis) and pressure

          total   stress  (Ry/bohr**3)                   (kbar)     P=   -0.30
  -0.00000017  -0.00000000  -0.00000000         -0.03     -0.00     -0.00
  -0.00000000  -0.00000017  -0.00000000         -0.00     -0.03     -0.00
  -0.00000000  -0.00000000  -0.00000582         -0.00     -0.00     -0.86


     Writing output data file BaTiO3_7_Ba-O_P4mm.save/
 
     init_run     :      2.70s CPU      3.41s WALL (       2 calls)
     electrons    :   1012.88s CPU   1040.84s WALL (      19 calls)
     update_pot   :      7.26s CPU      7.32s WALL (      17 calls)
     forces       :      9.32s CPU      9.43s WALL (      19 calls)
     stress       :     35.40s CPU     35.83s WALL (      19 calls)

     Called by init_run:
     wfcinit      :      1.85s CPU      2.20s WALL (       2 calls)
     potinit      :      0.29s CPU      0.59s WALL (       2 calls)
     hinit0       :      0.26s CPU      0.31s WALL (       2 calls)

     Called by electrons:
     c_bands      :    927.28s CPU    939.63s WALL (     366 calls)
     sum_band     :     78.10s CPU     79.67s WALL (     366 calls)
     v_of_rho     :      4.42s CPU      4.51s WALL (     385 calls)
     mix_rho      :      1.58s CPU      1.60s WALL (     366 calls)

     Called by c_bands:
     init_us_2    :     11.91s CPU     12.19s WALL (    6948 calls)
     cegterg      :    808.99s CPU    820.40s WALL (    3294 calls)

     Called by sum_band:

     Called by *egterg:
     h_psi        :    429.75s CPU    438.39s WALL (   20576 calls)
     g_psi        :      1.75s CPU      1.77s WALL (   17264 calls)
     cdiaghg      :    253.55s CPU    255.34s WALL (   20405 calls)

     Called by h_psi:
     h_psi:pot    :    427.03s CPU    435.60s WALL (   20576 calls)
     h_psi:calbec :     40.04s CPU     40.91s WALL (   20576 calls)
     vloc_psi     :    344.60s CPU    351.88s WALL (   20576 calls)
     add_vuspsi   :     42.22s CPU     42.69s WALL (   20576 calls)

     General routines
     calbec       :     43.59s CPU     44.52s WALL (   21431 calls)
     fft          :      4.14s CPU      4.27s WALL (    5055 calls)
     ffts         :      0.42s CPU      0.71s WALL (     751 calls)
     fftw         :    390.68s CPU    398.86s WALL ( 1661326 calls)
     interpolate  :      0.45s CPU      0.76s WALL (     385 calls)
 
     Parallel routines
     fft_scatt_xy :     32.76s CPU     33.43s WALL ( 1667132 calls)
     fft_scatt_yz :    225.22s CPU    229.96s WALL ( 1667132 calls)
 
     PWSCF        :  17m51.14s CPU  18m26.50s WALL

 
   This run was terminated on:  14:19:15   4Jun2021            

=------------------------------------------------------------------------------=
   JOB DONE.
=------------------------------------------------------------------------------=
