
     Program PWSCF v.6.4.1 starts on  4Jun2021 at 15:26: 7 

     This program is part of the open-source Quantum ESPRESSO suite
     for quantum simulation of materials; please cite
         "P. Giannozzi et al., J. Phys.:Condens. Matter 21 395502 (2009);
         "P. Giannozzi et al., J. Phys.:Condens. Matter 29 465901 (2017);
          URL http://www.quantum-espresso.org", 
     in publications or presentations arising from this work. More details at
     http://www.quantum-espresso.org/quote

     Parallel version (MPI & OpenMP), running on     160 processor cores
     Number of MPI processes:               160
     Threads/MPI process:                     1

     MPI processes distributed on     4 nodes
     K-points division:     npool     =       4
     R & G space division:  proc/nbgrp/npool/nimage =      40
     Waiting for input...
     Reading input from standard input

     Current dimensions of program PWSCF are:
     Max number of different atomic species (ntypx) = 10
     Max number of k-points (npk) =  40000
     Max angular momentum in pseudopotentials (lmaxx) =  3
     Presently no symmetry can be used with electric field


     Subspace diagonalization in iterative solution of the eigenvalue problem:
     one sub-group per band group will be used
     scalapack distributed-memory algorithm (size of sub-group:  4*  4 procs)

 
     Parallelization info
     --------------------
     sticks:   dense  smooth     PW     G-vecs:    dense   smooth      PW
     Min          44      35     10                 7872     5627     844
     Max          45      36     11                 7887     5654     865
     Sum        1781    1433    405               315109   225629   34155
 


     bravais-lattice index     =            0
     lattice parameter (alat)  =       7.4782  a.u.
     unit-cell volume          =    2333.2066 (a.u.)^3
     number of atoms/cell      =           17
     number of atomic types    =            3
     number of electrons       =       136.00
     number of Kohn-Sham states=           82
     kinetic-energy cutoff     =      80.0000  Ry
     charge density cutoff     =     400.0000  Ry
     convergence threshold     =      1.0E-09
     mixing beta               =       0.3000
     number of iterations used =            8  plain     mixing
     Exchange-correlation      = PBESOL ( 1  4 10  8 0 0)
     nstep                     =           50


     celldm(1)=   7.478204  celldm(2)=   0.000000  celldm(3)=   0.000000
     celldm(4)=   0.000000  celldm(5)=   0.000000  celldm(6)=   0.000000

     crystal axes: (cart. coord. in units of alat)
               a(1) = (   1.000000   0.000000   0.000000 )  
               a(2) = (   0.000000   1.000000   0.000000 )  
               a(3) = (   0.000000   0.000000   5.579064 )  

     reciprocal axes: (cart. coord. in units 2 pi/alat)
               b(1) = (  1.000000  0.000000  0.000000 )  
               b(2) = (  0.000000  1.000000  0.000000 )  
               b(3) = (  0.000000  0.000000  0.179242 )  


     PseudoPot. # 1 for Ba read from file:
     ./pseudo/Ba.pbesol-nc-sr.upf
     MD5 check sum: 716a24e91cb490012dd496b6aa92d00e
     Pseudo is Norm-conserving + core correction, Zval = 10.0
     Generated using ONCVPSP code by D. R. Hamann
     Using radial grid of 1936 points,  6 beta functions with: 
                l(1) =   0
                l(2) =   0
                l(3) =   1
                l(4) =   1
                l(5) =   2
                l(6) =   2

     PseudoPot. # 2 for Ti read from file:
     ./pseudo/Ti.pbesol-nc-sr.upf
     MD5 check sum: c7cef475492d2ee3d0561e3a3e59fcd4
     Pseudo is Norm-conserving + core correction, Zval = 12.0
     Generated using ONCVPSP code by D. R. Hamann
     Using radial grid of 1586 points,  6 beta functions with: 
                l(1) =   0
                l(2) =   0
                l(3) =   1
                l(4) =   1
                l(5) =   2
                l(6) =   2

     PseudoPot. # 3 for O  read from file:
     ./pseudo/O.pbesol-nc-sr.upf
     MD5 check sum: f226cbcd508cec715ff87a8f75a1dfba
     Pseudo is Norm-conserving + core correction, Zval =  6.0
     Generated using ONCVPSP code by D. R. Hamann
     Using radial grid of  936 points,  5 beta functions with: 
                l(1) =   0
                l(2) =   0
                l(3) =   1
                l(4) =   1
                l(5) =   2

     atomic species   valence    mass     pseudopotential
        Ba            10.00   137.32700     Ba( 1.00)
        Ti            12.00    47.86700     Ti( 1.00)
        O              6.00    15.99940     O ( 1.00)

     No symmetry found



   Cartesian axes

     site n.     atom                  positions (alat units)
         1           Ba  tau(   1) = (   0.0000000   0.0000000   1.3151914  )
         2           O   tau(   2) = (   0.5000000   0.5000000   1.2889760  )
         3           Ti  tau(   3) = (   0.5000000   0.5000000   1.7847672  )
         4           O   tau(   4) = (   0.5000000  -0.0000000   1.7806683  )
         5           O   tau(   5) = (   0.0000000   0.5000000   1.7806683  )
         6           Ba  tau(   6) = (  -0.0000000   0.0000001   2.3014219  )
         7           O   tau(   7) = (   0.5000000   0.5000000   2.2850070  )
         8           Ti  tau(   8) = (   0.4999999   0.5000004   2.8094652  )
         9           O   tau(   9) = (   0.5000000  -0.0000002   2.7959913  )
        10           O   tau(  10) = (   0.0000000   0.4999999   2.7959914  )
        11           Ba  tau(  11) = (  -0.0000000   0.0000001   3.3060234  )
        12           O   tau(  12) = (   0.5000000   0.5000000   3.2926459  )
        13           Ti  tau(  13) = (   0.5000000   0.5000000   3.8344896  )
        14           O   tau(  14) = (   0.5000000  -0.0000000   3.8179768  )
        15           O   tau(  15) = (   0.0000000   0.5000000   3.8179768  )
        16           Ba  tau(  16) = (  -0.0000000   0.0000000   4.3157205  )
        17           O   tau(  17) = (   0.5000000   0.5000000   4.3006043  )

     number of k points=    34  gaussian smearing, width (Ry)=  0.0050
                       cart. coord. in units 2pi/alat
        k(    1) = (   0.0000000   0.0000000   0.0000000), wk =   0.0312500
        k(    2) = (   0.0000000   0.1250000   0.0000000), wk =   0.0625000
        k(    3) = (   0.0000000   0.2500000   0.0000000), wk =   0.0625000
        k(    4) = (   0.0000000   0.3750000   0.0000000), wk =   0.0625000
        k(    5) = (   0.0000000  -0.5000000   0.0000000), wk =   0.0312500
        k(    6) = (   0.1250000   0.0000000   0.0000000), wk =   0.0625000
        k(    7) = (   0.1250000   0.1250000   0.0000000), wk =   0.0625000
        k(    8) = (   0.1250000   0.2500000   0.0000000), wk =   0.0625000
        k(    9) = (   0.1250000   0.3750000   0.0000000), wk =   0.0625000
        k(   10) = (   0.1250000  -0.5000000   0.0000000), wk =   0.0625000
        k(   11) = (   0.1250000  -0.3750000   0.0000000), wk =   0.0625000
        k(   12) = (   0.1250000  -0.2500000   0.0000000), wk =   0.0625000
        k(   13) = (   0.1250000  -0.1250000   0.0000000), wk =   0.0625000
        k(   14) = (   0.2500000   0.0000000   0.0000000), wk =   0.0625000
        k(   15) = (   0.2500000   0.1250000   0.0000000), wk =   0.0625000
        k(   16) = (   0.2500000   0.2500000   0.0000000), wk =   0.0625000
        k(   17) = (   0.2500000   0.3750000   0.0000000), wk =   0.0625000
        k(   18) = (   0.2500000  -0.5000000   0.0000000), wk =   0.0625000
        k(   19) = (   0.2500000  -0.3750000   0.0000000), wk =   0.0625000
        k(   20) = (   0.2500000  -0.2500000   0.0000000), wk =   0.0625000
        k(   21) = (   0.2500000  -0.1250000   0.0000000), wk =   0.0625000
        k(   22) = (   0.3750000   0.0000000   0.0000000), wk =   0.0625000
        k(   23) = (   0.3750000   0.1250000   0.0000000), wk =   0.0625000
        k(   24) = (   0.3750000   0.2500000   0.0000000), wk =   0.0625000
        k(   25) = (   0.3750000   0.3750000   0.0000000), wk =   0.0625000
        k(   26) = (   0.3750000  -0.5000000   0.0000000), wk =   0.0625000
        k(   27) = (   0.3750000  -0.3750000   0.0000000), wk =   0.0625000
        k(   28) = (   0.3750000  -0.2500000   0.0000000), wk =   0.0625000
        k(   29) = (   0.3750000  -0.1250000   0.0000000), wk =   0.0625000
        k(   30) = (  -0.5000000   0.0000000   0.0000000), wk =   0.0312500
        k(   31) = (  -0.5000000   0.1250000   0.0000000), wk =   0.0625000
        k(   32) = (  -0.5000000   0.2500000   0.0000000), wk =   0.0625000
        k(   33) = (  -0.5000000   0.3750000   0.0000000), wk =   0.0625000
        k(   34) = (  -0.5000000  -0.5000000   0.0000000), wk =   0.0312500

     Dense  grid:   315109 G-vectors     FFT dimensions: (  48,  48, 270)

     Smooth grid:   225629 G-vectors     FFT dimensions: (  45,  45, 240)

     Estimated max dynamical RAM per process >      35.54 MB

     Estimated total dynamical RAM >       5.55 GB

     Initial potential from superposition of free atoms

     starting charge  135.93448, renormalised to  136.00000

     negative rho (up, down):  6.113E-06 0.000E+00
 
     Adding external electric field

     Computed dipole along edir(3) : 
        Dipole                0.0163 Ry au,          0.0415 Debye
        Dipole field          0.0001 Ry au, 
 
        E field amplitude [Ha a.u.]:  4.0000E-02
        Potential amp.        3.2887 Ry
        Total length         41.1999 bohr
 
     Starting wfcs are   90 randomized atomic wfcs

     total cpu time spent up to now is        1.7 secs

     Self-consistent Calculation

     iteration #  1     ecut=    80.00 Ry     beta= 0.30
     Davidson diagonalization with overlap
     ethr =  1.00E-02,  avg # of iterations =  8.3
 
     Adding external electric field

     Computed dipole along edir(3) : 
        Dipole              173.0420 Ry au,        439.8288 Debye
        Dipole field          0.9320 Ry au, 
 
        E field amplitude [Ha a.u.]:  4.0000E-02
        Potential amp.      -73.4992 Ry
        Total length         41.1999 bohr
 

     total cpu time spent up to now is        6.4 secs

     total energy              =     569.54798851 Ry
     Harris-Foulkes estimate   =    -783.41109217 Ry
     estimated scf accuracy    <    2951.67640598 Ry

     iteration #  2     ecut=    80.00 Ry     beta= 0.30
     Davidson diagonalization with overlap
     ethr =  1.00E-02,  avg # of iterations = 24.6
 
     Adding external electric field

     Computed dipole along edir(3) : 
        Dipole               51.2918 Ry au,        130.3707 Debye
        Dipole field          0.2763 Ry au, 
 
        E field amplitude [Ha a.u.]:  4.0000E-02
        Potential amp.      -19.4671 Ry
        Total length         41.1999 bohr
 

     total cpu time spent up to now is       23.4 secs

     total energy              =    -922.39987548 Ry
     Harris-Foulkes estimate   =   -5328.19132337 Ry
     estimated scf accuracy    <   36692.61582241 Ry

     iteration #  3     ecut=    80.00 Ry     beta= 0.30
     Davidson diagonalization with overlap
     ethr =  1.00E-02,  avg # of iterations = 18.6
 
     Adding external electric field

     Computed dipole along edir(3) : 
        Dipole               37.1033 Ry au,         94.3071 Debye
        Dipole field          0.1998 Ry au, 
 
        E field amplitude [Ha a.u.]:  4.0000E-02
        Potential amp.      -13.1703 Ry
        Total length         41.1999 bohr
 

     total cpu time spent up to now is       34.8 secs

     total energy              =   -1118.37482701 Ry
     Harris-Foulkes estimate   =   -2126.77995888 Ry
     estimated scf accuracy    <   11670.29940292 Ry

     iteration #  4     ecut=    80.00 Ry     beta= 0.30
     Davidson diagonalization with overlap
     ethr =  1.00E-02,  avg # of iterations = 14.2
 
     Adding external electric field

     Computed dipole along edir(3) : 
        Dipole               28.6504 Ry au,         72.8221 Debye
        Dipole field          0.1543 Ry au, 
 
        E field amplitude [Ha a.u.]:  4.0000E-02
        Potential amp.       -9.4189 Ry
        Total length         41.1999 bohr
 

     total cpu time spent up to now is       42.7 secs

     total energy              =   -1035.85472686 Ry
     Harris-Foulkes estimate   =   -1274.82308306 Ry
     estimated scf accuracy    <    5729.61728721 Ry

     iteration #  5     ecut=    80.00 Ry     beta= 0.30
     Davidson diagonalization with overlap
     ethr =  1.00E-02,  avg # of iterations =  8.9
 
     Adding external electric field

     Computed dipole along edir(3) : 
        Dipole               20.8168 Ry au,         52.9111 Debye
        Dipole field          0.1121 Ry au, 
 
        E field amplitude [Ha a.u.]:  4.0000E-02
        Potential amp.       -5.9424 Ry
        Total length         41.1999 bohr
 

     total cpu time spent up to now is       47.6 secs

     total energy              =    -884.12221309 Ry
     Harris-Foulkes estimate   =   -1062.73420737 Ry
     estimated scf accuracy    <    5330.00435614 Ry

     iteration #  6     ecut=    80.00 Ry     beta= 0.30
     Davidson diagonalization with overlap
     ethr =  1.00E-02,  avg # of iterations = 11.5
 
     Adding external electric field

     Computed dipole along edir(3) : 
        Dipole               20.8691 Ry au,         53.0439 Debye
        Dipole field          0.1124 Ry au, 
 
        E field amplitude [Ha a.u.]:  4.0000E-02
        Potential amp.       -5.9656 Ry
        Total length         41.1999 bohr
 

     total cpu time spent up to now is       54.1 secs

     total energy              =    -939.81677344 Ry
     Harris-Foulkes estimate   =    -950.80924066 Ry
     estimated scf accuracy    <     363.13977020 Ry

     iteration #  7     ecut=    80.00 Ry     beta= 0.30
     Davidson diagonalization with overlap
     ethr =  1.00E-02,  avg # of iterations =  7.4
 
     Adding external electric field

     Computed dipole along edir(3) : 
        Dipole               17.3885 Ry au,         44.1972 Debye
        Dipole field          0.0937 Ry au, 
 
        E field amplitude [Ha a.u.]:  4.0000E-02
        Potential amp.       -4.4209 Ry
        Total length         41.1999 bohr
 

     total cpu time spent up to now is       58.5 secs

     total energy              =    -926.01989846 Ry
     Harris-Foulkes estimate   =    -978.46084554 Ry
     estimated scf accuracy    <    3666.55108698 Ry

     iteration #  8     ecut=    80.00 Ry     beta= 0.30
     Davidson diagonalization with overlap
     ethr =  1.00E-02,  avg # of iterations =  8.6
 
     Adding external electric field

     Computed dipole along edir(3) : 
        Dipole               14.5544 Ry au,         36.9936 Debye
        Dipole field          0.0784 Ry au, 
 
        E field amplitude [Ha a.u.]:  4.0000E-02
        Potential amp.       -3.1632 Ry
        Total length         41.1999 bohr
 

     total cpu time spent up to now is       62.1 secs

     total energy              =    -921.87491906 Ry
     Harris-Foulkes estimate   =    -933.23794851 Ry
     estimated scf accuracy    <    1354.73591536 Ry

     iteration #  9     ecut=    80.00 Ry     beta= 0.30
     Davidson diagonalization with overlap
     ethr =  1.00E-02,  avg # of iterations =  5.4
 
     Adding external electric field

     Computed dipole along edir(3) : 
        Dipole                9.8051 Ry au,         24.9221 Debye
        Dipole field          0.0528 Ry au, 
 
        E field amplitude [Ha a.u.]:  4.0000E-02
        Potential amp.       -1.0555 Ry
        Total length         41.1999 bohr
 

     total cpu time spent up to now is       64.6 secs

     total energy              =    -890.76742017 Ry
     Harris-Foulkes estimate   =    -925.22305192 Ry
     estimated scf accuracy    <    1253.10195950 Ry

     iteration # 10     ecut=    80.00 Ry     beta= 0.30
     Davidson diagonalization with overlap
     ethr =  1.00E-02,  avg # of iterations =  8.0

     negative rho (up, down):  8.261E-02 0.000E+00
 
     Adding external electric field

     Computed dipole along edir(3) : 
        Dipole                2.1241 Ry au,          5.3989 Debye
        Dipole field          0.0114 Ry au, 
 
        E field amplitude [Ha a.u.]:  4.0000E-02
        Potential amp.        2.3533 Ry
        Total length         41.1999 bohr
 

     total cpu time spent up to now is       68.8 secs

     total energy              =    -928.39010367 Ry
     Harris-Foulkes estimate   =    -920.71547216 Ry
     estimated scf accuracy    <      74.95006212 Ry

     iteration # 11     ecut=    80.00 Ry     beta= 0.30
     Davidson diagonalization with overlap
     ethr =  1.00E-02,  avg # of iterations =  8.1
 
     Adding external electric field

     Computed dipole along edir(3) : 
        Dipole               11.0767 Ry au,         28.1543 Debye
        Dipole field          0.0597 Ry au, 
 
        E field amplitude [Ha a.u.]:  4.0000E-02
        Potential amp.       -1.6198 Ry
        Total length         41.1999 bohr
 

     total cpu time spent up to now is       73.4 secs

     total energy              =    -823.32506259 Ry
     Harris-Foulkes estimate   =   -1001.69940533 Ry
     estimated scf accuracy    <   10557.50904325 Ry

     iteration # 12     ecut=    80.00 Ry     beta= 0.30
     Davidson diagonalization with overlap
     ethr =  1.00E-02,  avg # of iterations = 10.7
 
     Adding external electric field

     Computed dipole along edir(3) : 
        Dipole               12.8498 Ry au,         32.6610 Debye
        Dipole field          0.0692 Ry au, 
 
        E field amplitude [Ha a.u.]:  4.0000E-02
        Potential amp.       -2.4067 Ry
        Total length         41.1999 bohr
 

     total cpu time spent up to now is       78.4 secs

     total energy              =    -916.87297517 Ry
     Harris-Foulkes estimate   =    -921.68349584 Ry
     estimated scf accuracy    <     257.85064689 Ry

     iteration # 13     ecut=    80.00 Ry     beta= 0.30
     Davidson diagonalization with overlap
     ethr =  1.00E-02,  avg # of iterations =  6.7
 
     Adding external electric field

     Computed dipole along edir(3) : 
        Dipole               14.5620 Ry au,         37.0130 Debye
        Dipole field          0.0784 Ry au, 
 
        E field amplitude [Ha a.u.]:  4.0000E-02
        Potential amp.       -3.1666 Ry
        Total length         41.1999 bohr
 

     total cpu time spent up to now is       81.5 secs

     total energy              =    -920.47886048 Ry
     Harris-Foulkes estimate   =    -920.55864358 Ry
     estimated scf accuracy    <      18.50194591 Ry

     iteration # 14     ecut=    80.00 Ry     beta= 0.30
     Davidson diagonalization with overlap
     ethr =  1.00E-02,  avg # of iterations =  1.6
 
     Adding external electric field

     Computed dipole along edir(3) : 
        Dipole               18.7312 Ry au,         47.6098 Debye
        Dipole field          0.1009 Ry au, 
 
        E field amplitude [Ha a.u.]:  4.0000E-02
        Potential amp.       -5.0168 Ry
        Total length         41.1999 bohr
 

     total cpu time spent up to now is       83.3 secs

     total energy              =    -921.78313072 Ry
     Harris-Foulkes estimate   =    -920.31361799 Ry
     estimated scf accuracy    <      16.78226351 Ry

     iteration # 15     ecut=    80.00 Ry     beta= 0.30
     Davidson diagonalization with overlap
     ethr =  1.00E-02,  avg # of iterations =  5.7
 
     Adding external electric field

     Computed dipole along edir(3) : 
        Dipole               17.0174 Ry au,         43.2539 Debye
        Dipole field          0.0917 Ry au, 
 
        E field amplitude [Ha a.u.]:  4.0000E-02
        Potential amp.       -4.2563 Ry
        Total length         41.1999 bohr
 

     total cpu time spent up to now is       86.0 secs

     total energy              =    -920.10554622 Ry
     Harris-Foulkes estimate   =    -925.95112697 Ry
     estimated scf accuracy    <     124.56905965 Ry

     iteration # 16     ecut=    80.00 Ry     beta= 0.30
     Davidson diagonalization with overlap
     ethr =  1.00E-02,  avg # of iterations =  2.4
 
     Adding external electric field

     Computed dipole along edir(3) : 
        Dipole               15.3860 Ry au,         39.1072 Debye
        Dipole field          0.0829 Ry au, 
 
        E field amplitude [Ha a.u.]:  4.0000E-02
        Potential amp.       -3.5322 Ry
        Total length         41.1999 bohr
 

     total cpu time spent up to now is       87.9 secs

     total energy              =    -919.17670868 Ry
     Harris-Foulkes estimate   =    -921.53939610 Ry
     estimated scf accuracy    <      35.72369035 Ry

     iteration # 17     ecut=    80.00 Ry     beta= 0.30
     Davidson diagonalization with overlap
     ethr =  1.00E-02,  avg # of iterations =  4.1
 
     Adding external electric field

     Computed dipole along edir(3) : 
        Dipole               17.7535 Ry au,         45.1250 Debye
        Dipole field          0.0956 Ry au, 
 
        E field amplitude [Ha a.u.]:  4.0000E-02
        Potential amp.       -4.5829 Ry
        Total length         41.1999 bohr
 

     total cpu time spent up to now is       89.9 secs

     total energy              =    -919.94199276 Ry
     Harris-Foulkes estimate   =    -920.38730541 Ry
     estimated scf accuracy    <      16.12405713 Ry

     iteration # 18     ecut=    80.00 Ry     beta= 0.30
     Davidson diagonalization with overlap
     ethr =  1.00E-02,  avg # of iterations =  9.3
 
     Adding external electric field

     Computed dipole along edir(3) : 
        Dipole               13.9185 Ry au,         35.3773 Debye
        Dipole field          0.0750 Ry au, 
 
        E field amplitude [Ha a.u.]:  4.0000E-02
        Potential amp.       -2.8810 Ry
        Total length         41.1999 bohr
 

     total cpu time spent up to now is       93.4 secs

     total energy              =    -912.99030357 Ry
     Harris-Foulkes estimate   =    -924.99867204 Ry
     estimated scf accuracy    <     550.50747619 Ry

     iteration # 19     ecut=    80.00 Ry     beta= 0.30
     Davidson diagonalization with overlap
     ethr =  1.00E-02,  avg # of iterations =  5.2
 
     Adding external electric field

     Computed dipole along edir(3) : 
        Dipole               14.6179 Ry au,         37.1549 Debye
        Dipole field          0.0787 Ry au, 
 
        E field amplitude [Ha a.u.]:  4.0000E-02
        Potential amp.       -3.1913 Ry
        Total length         41.1999 bohr
 

     total cpu time spent up to now is       96.0 secs

     total energy              =    -917.96727405 Ry
     Harris-Foulkes estimate   =    -918.59233983 Ry
     estimated scf accuracy    <      23.04444757 Ry

     iteration # 20     ecut=    80.00 Ry     beta= 0.30
     Davidson diagonalization with overlap
     ethr =  1.00E-02,  avg # of iterations =  1.0

     negative rho (up, down):  3.623E-02 0.000E+00
 
     Adding external electric field

     Computed dipole along edir(3) : 
        Dipole                7.7907 Ry au,         19.8021 Debye
        Dipole field          0.0420 Ry au, 
 
        E field amplitude [Ha a.u.]:  4.0000E-02
        Potential amp.       -0.1615 Ry
        Total length         41.1999 bohr
 

     total cpu time spent up to now is       97.6 secs

     total energy              =    -912.39412125 Ry
     Harris-Foulkes estimate   =    -918.57707138 Ry
     estimated scf accuracy    <      11.54011465 Ry

     iteration # 21     ecut=    80.00 Ry     beta= 0.30
     Davidson diagonalization with overlap
     ethr =  8.49E-03,  avg # of iterations =  3.6

     negative rho (up, down):  2.086E-02 0.000E+00
 
     Adding external electric field

     Computed dipole along edir(3) : 
        Dipole                6.3415 Ry au,         16.1184 Debye
        Dipole field          0.0342 Ry au, 
 
        E field amplitude [Ha a.u.]:  4.0000E-02
        Potential amp.        0.4817 Ry
        Total length         41.1999 bohr
 

     total cpu time spent up to now is       99.8 secs

     total energy              =    -912.56071064 Ry
     Harris-Foulkes estimate   =    -913.83473260 Ry
     estimated scf accuracy    <       5.76136147 Ry

     iteration # 22     ecut=    80.00 Ry     beta= 0.30
     Davidson diagonalization with overlap
     ethr =  4.24E-03,  avg # of iterations =  6.2

     negative rho (up, down):  1.134E-02 0.000E+00
 
     Adding external electric field

     Computed dipole along edir(3) : 
        Dipole                9.1422 Ry au,         23.2371 Debye
        Dipole field          0.0492 Ry au, 
 
        E field amplitude [Ha a.u.]:  4.0000E-02
        Potential amp.       -0.7613 Ry
        Total length         41.1999 bohr
 

     total cpu time spent up to now is      102.9 secs

     total energy              =    -906.43888398 Ry
     Harris-Foulkes estimate   =    -914.61743343 Ry
     estimated scf accuracy    <     104.31176040 Ry

     iteration # 23     ecut=    80.00 Ry     beta= 0.30
     Davidson diagonalization with overlap
     ethr =  4.24E-03,  avg # of iterations =  6.0

     negative rho (up, down):  2.231E-02 0.000E+00
 
     Adding external electric field

     Computed dipole along edir(3) : 
        Dipole                6.9931 Ry au,         17.7748 Debye
        Dipole field          0.0377 Ry au, 
 
        E field amplitude [Ha a.u.]:  4.0000E-02
        Potential amp.        0.1925 Ry
        Total length         41.1999 bohr
 

     total cpu time spent up to now is      105.8 secs

     total energy              =    -912.91274628 Ry
     Harris-Foulkes estimate   =    -913.85392010 Ry
     estimated scf accuracy    <       2.78355103 Ry

     iteration # 24     ecut=    80.00 Ry     beta= 0.30
     Davidson diagonalization with overlap
     ethr =  2.05E-03,  avg # of iterations =  3.8

     negative rho (up, down):  2.079E-02 0.000E+00
 
     Adding external electric field

     Computed dipole along edir(3) : 
        Dipole                5.7208 Ry au,         14.5407 Debye
        Dipole field          0.0308 Ry au, 
 
        E field amplitude [Ha a.u.]:  4.0000E-02
        Potential amp.        0.7571 Ry
        Total length         41.1999 bohr
 

     total cpu time spent up to now is      108.2 secs

     total energy              =    -912.67520827 Ry
     Harris-Foulkes estimate   =    -913.01831155 Ry
     estimated scf accuracy    <       1.02876285 Ry

     iteration # 25     ecut=    80.00 Ry     beta= 0.30
     Davidson diagonalization with overlap
     ethr =  7.56E-04,  avg # of iterations =  7.2

     negative rho (up, down):  2.423E-02 0.000E+00
 
     Adding external electric field

     Computed dipole along edir(3) : 
        Dipole                4.8976 Ry au,         12.4484 Debye
        Dipole field          0.0264 Ry au, 
 
        E field amplitude [Ha a.u.]:  4.0000E-02
        Potential amp.        1.1225 Ry
        Total length         41.1999 bohr
 

     total cpu time spent up to now is      111.3 secs

     total energy              =    -912.68657717 Ry
     Harris-Foulkes estimate   =    -912.75198427 Ry
     estimated scf accuracy    <       0.24538210 Ry

     iteration # 26     ecut=    80.00 Ry     beta= 0.30
     Davidson diagonalization with overlap
     ethr =  1.80E-04,  avg # of iterations =  6.0

     negative rho (up, down):  1.138E-02 0.000E+00
 
     Adding external electric field

     Computed dipole along edir(3) : 
        Dipole                5.3955 Ry au,         13.7139 Debye
        Dipole field          0.0291 Ry au, 
 
        E field amplitude [Ha a.u.]:  4.0000E-02
        Potential amp.        0.9015 Ry
        Total length         41.1999 bohr
 

     total cpu time spent up to now is      114.2 secs

     total energy              =    -912.56285266 Ry
     Harris-Foulkes estimate   =    -912.90220433 Ry
     estimated scf accuracy    <       6.53595593 Ry

     iteration # 27     ecut=    80.00 Ry     beta= 0.30
     Davidson diagonalization with overlap
     ethr =  1.80E-04,  avg # of iterations =  7.9

     negative rho (up, down):  5.884E-03 0.000E+00
 
     Adding external electric field

     Computed dipole along edir(3) : 
        Dipole                5.8465 Ry au,         14.8604 Debye
        Dipole field          0.0315 Ry au, 
 
        E field amplitude [Ha a.u.]:  4.0000E-02
        Potential amp.        0.7013 Ry
        Total length         41.1999 bohr
 

     total cpu time spent up to now is      117.6 secs

     total energy              =    -912.70126732 Ry
     Harris-Foulkes estimate   =    -912.74014972 Ry
     estimated scf accuracy    <       0.12247926 Ry

     iteration # 28     ecut=    80.00 Ry     beta= 0.30
     Davidson diagonalization with overlap
     c_bands:  1 eigenvalues not converged
     c_bands:  1 eigenvalues not converged
     ethr =  9.01E-05,  avg # of iterations = 12.8

     negative rho (up, down):  2.549E-03 0.000E+00
 
     Adding external electric field

     Computed dipole along edir(3) : 
        Dipole                5.4781 Ry au,         13.9239 Debye
        Dipole field          0.0295 Ry au, 
 
        E field amplitude [Ha a.u.]:  4.0000E-02
        Potential amp.        0.8648 Ry
        Total length         41.1999 bohr
 

     total cpu time spent up to now is      121.8 secs

     total energy              =    -912.71309579 Ry
     Harris-Foulkes estimate   =    -912.73927546 Ry
     estimated scf accuracy    <       0.15952340 Ry

     iteration # 29     ecut=    80.00 Ry     beta= 0.30
     Davidson diagonalization with overlap
     ethr =  9.01E-05,  avg # of iterations =  5.6

     negative rho (up, down):  3.528E-04 0.000E+00
 
     Adding external electric field

     Computed dipole along edir(3) : 
        Dipole                5.4790 Ry au,         13.9262 Debye
        Dipole field          0.0295 Ry au, 
 
        E field amplitude [Ha a.u.]:  4.0000E-02
        Potential amp.        0.8644 Ry
        Total length         41.1999 bohr
 

     total cpu time spent up to now is      124.4 secs

     total energy              =    -912.71981605 Ry
     Harris-Foulkes estimate   =    -912.72188990 Ry
     estimated scf accuracy    <       0.05473283 Ry

     iteration # 30     ecut=    80.00 Ry     beta= 0.30
     Davidson diagonalization with overlap
     ethr =  4.02E-05,  avg # of iterations =  4.7

     negative rho (up, down):  8.713E-06 0.000E+00
 
     Adding external electric field

     Computed dipole along edir(3) : 
        Dipole                5.4124 Ry au,         13.7569 Debye
        Dipole field          0.0292 Ry au, 
 
        E field amplitude [Ha a.u.]:  4.0000E-02
        Potential amp.        0.8940 Ry
        Total length         41.1999 bohr
 

     total cpu time spent up to now is      126.7 secs

     total energy              =    -912.71815579 Ry
     Harris-Foulkes estimate   =    -912.72045217 Ry
     estimated scf accuracy    <       0.06038162 Ry

     iteration # 31     ecut=    80.00 Ry     beta= 0.30
     Davidson diagonalization with overlap
     ethr =  4.02E-05,  avg # of iterations =  2.2
 
     Adding external electric field

     Computed dipole along edir(3) : 
        Dipole                5.2630 Ry au,         13.3773 Debye
        Dipole field          0.0283 Ry au, 
 
        E field amplitude [Ha a.u.]:  4.0000E-02
        Potential amp.        0.9603 Ry
        Total length         41.1999 bohr
 

     total cpu time spent up to now is      129.1 secs

     total energy              =    -912.71307087 Ry
     Harris-Foulkes estimate   =    -912.71526728 Ry
     estimated scf accuracy    <       0.03650879 Ry

     iteration # 32     ecut=    80.00 Ry     beta= 0.30
     Davidson diagonalization with overlap
     ethr =  2.68E-05,  avg # of iterations = 11.9
 
     Adding external electric field

     Computed dipole along edir(3) : 
        Dipole                5.3099 Ry au,         13.4965 Debye
        Dipole field          0.0286 Ry au, 
 
        E field amplitude [Ha a.u.]:  4.0000E-02
        Potential amp.        0.9395 Ry
        Total length         41.1999 bohr
 

     total cpu time spent up to now is      133.7 secs

     total energy              =    -912.71535627 Ry
     Harris-Foulkes estimate   =    -912.71826590 Ry
     estimated scf accuracy    <       0.06792065 Ry

     iteration # 33     ecut=    80.00 Ry     beta= 0.30
     Davidson diagonalization with overlap
     ethr =  2.68E-05,  avg # of iterations =  1.7
 
     Adding external electric field

     Computed dipole along edir(3) : 
        Dipole                5.3506 Ry au,         13.5999 Debye
        Dipole field          0.0288 Ry au, 
 
        E field amplitude [Ha a.u.]:  4.0000E-02
        Potential amp.        0.9214 Ry
        Total length         41.1999 bohr
 

     total cpu time spent up to now is      135.6 secs

     total energy              =    -912.71518845 Ry
     Harris-Foulkes estimate   =    -912.71710778 Ry
     estimated scf accuracy    <       0.00900376 Ry

     iteration # 34     ecut=    80.00 Ry     beta= 0.30
     Davidson diagonalization with overlap
     c_bands:  1 eigenvalues not converged
     c_bands:  1 eigenvalues not converged
     ethr =  6.62E-06,  avg # of iterations = 10.6
 
     Adding external electric field

     Computed dipole along edir(3) : 
        Dipole                5.3309 Ry au,         13.5497 Debye
        Dipole field          0.0287 Ry au, 
 
        E field amplitude [Ha a.u.]:  4.0000E-02
        Potential amp.        0.9302 Ry
        Total length         41.1999 bohr
 

     total cpu time spent up to now is      139.5 secs

     total energy              =    -912.71569532 Ry
     Harris-Foulkes estimate   =    -912.71558138 Ry
     estimated scf accuracy    <       0.00439841 Ry

     iteration # 35     ecut=    80.00 Ry     beta= 0.30
     Davidson diagonalization with overlap
     ethr =  3.23E-06,  avg # of iterations =  4.9
 
     Adding external electric field

     Computed dipole along edir(3) : 
        Dipole                5.3284 Ry au,         13.5435 Debye
        Dipole field          0.0287 Ry au, 
 
        E field amplitude [Ha a.u.]:  4.0000E-02
        Potential amp.        0.9313 Ry
        Total length         41.1999 bohr
 

     total cpu time spent up to now is      142.8 secs

     total energy              =    -912.71586486 Ry
     Harris-Foulkes estimate   =    -912.71582388 Ry
     estimated scf accuracy    <       0.00029326 Ry

     iteration # 36     ecut=    80.00 Ry     beta= 0.30
     Davidson diagonalization with overlap
     ethr =  2.16E-07,  avg # of iterations =  3.4
 
     Adding external electric field

     Computed dipole along edir(3) : 
        Dipole                5.3347 Ry au,         13.5596 Debye
        Dipole field          0.0287 Ry au, 
 
        E field amplitude [Ha a.u.]:  4.0000E-02
        Potential amp.        0.9285 Ry
        Total length         41.1999 bohr
 

     total cpu time spent up to now is      145.0 secs

     total energy              =    -912.71584926 Ry
     Harris-Foulkes estimate   =    -912.71602509 Ry
     estimated scf accuracy    <       0.00035499 Ry

     iteration # 37     ecut=    80.00 Ry     beta= 0.30
     Davidson diagonalization with overlap
     ethr =  2.16E-07,  avg # of iterations =  1.1
 
     Adding external electric field

     Computed dipole along edir(3) : 
        Dipole                5.3328 Ry au,         13.5546 Debye
        Dipole field          0.0287 Ry au, 
 
        E field amplitude [Ha a.u.]:  4.0000E-02
        Potential amp.        0.9293 Ry
        Total length         41.1999 bohr
 

     total cpu time spent up to now is      146.6 secs

     total energy              =    -912.71586906 Ry
     Harris-Foulkes estimate   =    -912.71583135 Ry
     estimated scf accuracy    <       0.00015531 Ry

     iteration # 38     ecut=    80.00 Ry     beta= 0.30
     Davidson diagonalization with overlap
     ethr =  1.14E-07,  avg # of iterations =  1.0
 
     Adding external electric field

     Computed dipole along edir(3) : 
        Dipole                5.3323 Ry au,         13.5533 Debye
        Dipole field          0.0287 Ry au, 
 
        E field amplitude [Ha a.u.]:  4.0000E-02
        Potential amp.        0.9295 Ry
        Total length         41.1999 bohr
 

     total cpu time spent up to now is      148.2 secs

     total energy              =    -912.71587130 Ry
     Harris-Foulkes estimate   =    -912.71586041 Ry
     estimated scf accuracy    <       0.00001402 Ry

     iteration # 39     ecut=    80.00 Ry     beta= 0.30
     Davidson diagonalization with overlap
     ethr =  1.03E-08,  avg # of iterations =  5.1
 
     Adding external electric field

     Computed dipole along edir(3) : 
        Dipole                5.3314 Ry au,         13.5511 Debye
        Dipole field          0.0287 Ry au, 
 
        E field amplitude [Ha a.u.]:  4.0000E-02
        Potential amp.        0.9299 Ry
        Total length         41.1999 bohr
 

     total cpu time spent up to now is      151.1 secs

     total energy              =    -912.71587202 Ry
     Harris-Foulkes estimate   =    -912.71585284 Ry
     estimated scf accuracy    <       0.00000476 Ry

     iteration # 40     ecut=    80.00 Ry     beta= 0.30
     Davidson diagonalization with overlap
     ethr =  3.50E-09,  avg # of iterations =  1.9
 
     Adding external electric field

     Computed dipole along edir(3) : 
        Dipole                5.3316 Ry au,         13.5516 Debye
        Dipole field          0.0287 Ry au, 
 
        E field amplitude [Ha a.u.]:  4.0000E-02
        Potential amp.        0.9298 Ry
        Total length         41.1999 bohr
 

     total cpu time spent up to now is      153.0 secs

     total energy              =    -912.71587229 Ry
     Harris-Foulkes estimate   =    -912.71587697 Ry
     estimated scf accuracy    <       0.00000070 Ry

     iteration # 41     ecut=    80.00 Ry     beta= 0.30
     Davidson diagonalization with overlap
     ethr =  5.15E-10,  avg # of iterations =  3.1
 
     Adding external electric field

     Computed dipole along edir(3) : 
        Dipole                5.3317 Ry au,         13.5519 Debye
        Dipole field          0.0287 Ry au, 
 
        E field amplitude [Ha a.u.]:  4.0000E-02
        Potential amp.        0.9298 Ry
        Total length         41.1999 bohr
 

     total cpu time spent up to now is      155.1 secs

     total energy              =    -912.71587232 Ry
     Harris-Foulkes estimate   =    -912.71587459 Ry
     estimated scf accuracy    <       0.00000004 Ry

     iteration # 42     ecut=    80.00 Ry     beta= 0.30
     Davidson diagonalization with overlap
     ethr =  3.14E-11,  avg # of iterations =  3.6
 
     Adding external electric field

     Computed dipole along edir(3) : 
        Dipole                5.3317 Ry au,         13.5518 Debye
        Dipole field          0.0287 Ry au, 
 
        E field amplitude [Ha a.u.]:  4.0000E-02
        Potential amp.        0.9298 Ry
        Total length         41.1999 bohr
 

     total cpu time spent up to now is      157.4 secs

     total energy              =    -912.71587233 Ry
     Harris-Foulkes estimate   =    -912.71587143 Ry
     estimated scf accuracy    <       0.00000002 Ry

     iteration # 43     ecut=    80.00 Ry     beta= 0.30
     Davidson diagonalization with overlap
     ethr =  1.37E-11,  avg # of iterations =  2.3
 
     Adding external electric field

     Computed dipole along edir(3) : 
        Dipole                5.3317 Ry au,         13.5518 Debye
        Dipole field          0.0287 Ry au, 
 
        E field amplitude [Ha a.u.]:  4.0000E-02
        Potential amp.        0.9298 Ry
        Total length         41.1999 bohr
 

     total cpu time spent up to now is      159.4 secs

     total energy              =    -912.71587233 Ry
     Harris-Foulkes estimate   =    -912.71587238 Ry
     estimated scf accuracy    <          1.3E-09 Ry

     iteration # 44     ecut=    80.00 Ry     beta= 0.30
     Davidson diagonalization with overlap
     ethr =  9.40E-13,  avg # of iterations =  3.8
 
     Adding external electric field

     Computed dipole along edir(3) : 
        Dipole                5.3318 Ry au,         13.5522 Debye
        Dipole field          0.0287 Ry au, 
 
        E field amplitude [Ha a.u.]:  4.0000E-02
        Potential amp.        0.9298 Ry
        Total length         41.1999 bohr
 

     total cpu time spent up to now is      161.7 secs

     End of self-consistent calculation

          k = 0.0000 0.0000 0.0000 ( 28203 PWs)   bands (ev):

   -50.5800 -50.5455 -50.4770 -26.9909 -26.9909 -26.9426 -26.9239 -26.9239
   -26.9190 -26.8834 -26.8746 -26.8746 -20.1857 -20.1045 -19.1512 -19.0712
   -11.6995 -11.5489 -11.3380 -10.8491 -10.6882 -10.5877 -10.4193 -10.2374
   -10.0401  -9.8300  -5.2716  -5.2661  -5.1487  -5.1487  -5.0723  -5.0723
    -4.2776  -4.2776  -4.2728  -4.1742  -4.1742  -4.0200   1.9775   2.6531
     2.6531   2.7059   2.8354   2.8354   3.1271   3.1271   3.3460   3.4603
     3.4752   3.6793   3.8451   3.8843   3.8843   4.0513   4.0513   4.0808
     4.2014   4.2014   4.3129   4.3129   4.3555   4.8756   4.8756   5.0466
     5.0466   5.0655   5.3756   5.3756   5.4185   7.3296   7.4551   7.5310
     7.9354   7.9354   8.5377   8.5377   8.7636   9.0499   9.0499   9.7366
     9.7653   9.8717

          k = 0.0000 0.1250 0.0000 ( 28213 PWs)   bands (ev):

   -50.5798 -50.5453 -50.4768 -27.0006 -26.9906 -26.9420 -26.9333 -26.9236
   -26.9185 -26.8842 -26.8828 -26.8742 -20.1726 -20.0904 -19.1336 -19.0567
   -11.6401 -11.4922 -11.3133 -10.8382 -10.6761 -10.5745 -10.4357 -10.2701
   -10.0844  -9.8774  -5.2954  -5.2925  -5.1246  -5.1170  -5.0484  -5.0343
    -4.2990  -4.2549  -4.2493  -4.1546  -4.1428  -4.0474   1.9199   2.4737
     2.5971   2.6571   2.8123   2.8350   2.8368   2.9082   3.1100   3.1646
     3.4352   3.5261   3.6617   3.7329   3.8322   3.8812   4.0027   4.0906
     4.1228   4.1577   4.2827   4.4270   4.5207   4.6866   4.6970   4.8749
     4.9099   5.0143   5.2404   5.2639   5.5247   7.6508   7.7723   7.8384
     7.9610   8.0743   8.5506   8.5532   8.8948   9.0496   9.0549  10.0194
    10.0581  10.1078

          k = 0.0000 0.2500 0.0000 ( 28241 PWs)   bands (ev):

   -50.5794 -50.5449 -50.4763 -27.0240 -26.9896 -26.9557 -26.9405 -26.9227
   -26.9173 -26.9072 -26.8816 -26.8733 -20.1408 -20.0559 -19.0904 -19.0211
   -11.5273 -11.3792 -11.2835 -10.7914 -10.6284 -10.5220 -10.4534 -10.3322
   -10.1863  -9.9846  -5.3272  -5.3168  -5.0772  -5.0650  -4.9893  -4.9697
    -4.3212  -4.2496  -4.1791  -4.1473  -4.0646  -4.0585   1.7754   1.9938
     2.1324   2.2135   2.3627   2.5444   2.6694   2.7068   2.8409   3.0404
     3.1692   3.3241   3.3814   3.4001   3.5025   3.5931   3.6844   3.8766
     3.9659   4.1345   4.2042   4.3553   4.3572   4.3937   4.5196   4.6408
     5.0342   5.0444   5.1093   5.2322   5.8893   7.9924   8.3192   8.4588
     8.4665   8.5330   8.6013   8.7712   9.0697   9.1586   9.2736  10.1455
    10.2807  10.4528

          k = 0.0000 0.3750 0.0000 ( 28244 PWs)   bands (ev):

   -50.5789 -50.5444 -50.4759 -27.0471 -26.9887 -26.9779 -26.9390 -26.9300
   -26.9218 -26.9160 -26.8803 -26.8724 -20.1085 -20.0209 -19.0466 -18.9846
   -11.5049 -11.3722 -11.1847 -10.7150 -10.5609 -10.4559 -10.4095 -10.3745
   -10.2780 -10.0785  -5.3467  -5.3141  -5.0577  -5.0034  -4.9283  -4.9186
    -4.3178  -4.2980  -4.1780  -4.1057  -3.9946  -3.9824   1.3922   1.4925
     1.6154   1.7008   2.0144   2.1099   2.5658   2.6933   2.7898   2.8466
     2.8929   3.0541   3.1586   3.1781   3.2347   3.2675   3.4332   3.6753
     3.8370   3.8821   4.0766   4.2672   4.4007   4.4136   4.5043   4.5585
     4.8354   5.0269   5.1294   5.3404   6.5937   8.0485   8.6121   8.8387
     8.9176   9.0508   9.0703   9.0830   9.0893   9.1933   9.4406   9.8162
    10.2384  10.4938

          k = 0.0000-0.5000 0.0000 ( 28214 PWs)   bands (ev):

   -50.5787 -50.5443 -50.4757 -27.0566 -26.9883 -26.9870 -26.9395 -26.9384
   -26.9214 -26.9155 -26.8798 -26.8720 -20.0951 -20.0063 -19.0282 -18.9691
   -11.5282 -11.3849 -11.1327 -10.6756 -10.5214 -10.4555 -10.3909 -10.3435
   -10.3122 -10.1130  -5.3524  -5.3081  -5.0533  -4.9772  -4.9024  -4.8985
    -4.3533  -4.2579  -4.2175  -4.0743  -3.9620  -3.9470   1.1542   1.2696
     1.3807   1.5279   1.9053   1.9911   2.5479   2.6176   2.7196   2.8002
     2.8341   2.9580   3.0011   3.0889   3.1323   3.2499   3.3720   3.5416
     3.6779   3.8540   3.9716   4.3274   4.3665   4.4909   4.5635   4.5662
     4.7598   4.9529   5.0809   5.4006   7.5215   7.6776   8.0724   8.6309
     9.0931   9.1570   9.2884   9.2991   9.2997   9.3922   9.5940  10.1224
    10.3649  10.6230

          k = 0.1250 0.0000 0.0000 ( 28213 PWs)   bands (ev):

   -50.5798 -50.5453 -50.4768 -27.0006 -26.9906 -26.9420 -26.9333 -26.9236
   -26.9185 -26.8842 -26.8828 -26.8742 -20.1726 -20.0904 -19.1336 -19.0567
   -11.6401 -11.4922 -11.3133 -10.8382 -10.6761 -10.5745 -10.4357 -10.2701
   -10.0844  -9.8774  -5.2954  -5.2925  -5.1246  -5.1170  -5.0484  -5.0343
    -4.2990  -4.2549  -4.2493  -4.1546  -4.1428  -4.0474   1.9199   2.4737
     2.5971   2.6571   2.8123   2.8350   2.8368   2.9082   3.1100   3.1646
     3.4352   3.5261   3.6617   3.7329   3.8322   3.8812   4.0027   4.0906
     4.1228   4.1577   4.2827   4.4270   4.5207   4.6866   4.6970   4.8749
     4.9099   5.0143   5.2404   5.2639   5.5247   7.6508   7.7723   7.8384
     7.9610   8.0743   8.5506   8.5532   8.8948   9.0496   9.0549  10.0194
    10.0580  10.1079

          k = 0.1250 0.1250 0.0000 ( 28197 PWs)   bands (ev):

   -50.5796 -50.5451 -50.4766 -27.0005 -27.0000 -26.9414 -26.9331 -26.9326
   -26.9180 -26.8840 -26.8835 -26.8823 -20.1600 -20.0767 -19.1167 -19.0426
   -11.5781 -11.4313 -11.2767 -10.8311 -10.6674 -10.5634 -10.4454 -10.2941
   -10.1164  -9.9115  -5.3165  -5.3068  -5.2343  -5.1454  -5.0071  -4.9224
    -4.3384  -4.2944  -4.2896  -4.2179  -4.0270  -4.0014   1.8688   2.3197
     2.5366   2.6246   2.6538   2.7600   2.7621   2.8292   2.9689   3.1099
     3.2220   3.3206   3.4296   3.6157   3.6186   3.7609   3.7900   4.1024
     4.2327   4.2739   4.3874   4.4349   4.4629   4.5589   4.7114   4.7490
     4.8351   4.9428   5.1649   5.2308   5.6293   7.8787   7.9903   8.0748
     8.1135   8.1189   8.5631   8.6210   9.0187   9.0510   9.1026  10.3055
    10.3398  10.3990

          k = 0.1250 0.2500 0.0000 ( 28222 PWs)   bands (ev):

   -50.5792 -50.5447 -50.4761 -27.0235 -26.9992 -26.9552 -26.9400 -26.9319
   -26.9168 -26.9067 -26.8828 -26.8811 -20.1293 -20.0435 -19.0755 -19.0080
   -11.4553 -11.3099 -11.2157 -10.7922 -10.6257 -10.5205 -10.4499 -10.3375
   -10.1907  -9.9894  -5.3640  -5.3363  -5.2719  -5.1743  -4.9653  -4.8672
    -4.4007  -4.3177  -4.3044  -4.2719  -3.9835  -3.9429   1.7480   1.9282
     2.1011   2.2067   2.3566   2.5089   2.5408   2.6854   2.7744   2.9062
     3.1204   3.1676   3.1836   3.2854   3.2890   3.4765   3.5638   3.8019
     3.9647   4.1736   4.2638   4.3755   4.4679   4.4851   4.6072   4.8027
     4.9775   4.9990   5.0570   5.1589   6.0238   8.1791   8.4203   8.5485
     8.5765   8.6026   8.6849   8.8366   9.1155   9.2142   9.3973  10.3892
    10.5053  10.8345

          k = 0.1250 0.3750 0.0000 ( 28238 PWs)   bands (ev):

   -50.5787 -50.5443 -50.4757 -27.0465 -26.9982 -26.9773 -26.9386 -26.9309
   -26.9295 -26.9156 -26.8818 -26.8798 -20.0981 -20.0098 -19.0337 -18.9725
   -11.4191 -11.2891 -11.1017 -10.7163 -10.5549 -10.4449 -10.4226 -10.3632
   -10.2580 -10.0578  -5.4043  -5.3476  -5.2351  -5.1166  -5.0121  -4.9004
    -4.4101  -4.3783  -4.2848  -4.2119  -4.0309  -3.9684   1.3853   1.4842
     1.5858   1.8769   2.0186   2.1661   2.4332   2.5948   2.6840   2.8076
     2.9041   2.9262   2.9977   3.0348   3.0674   3.2756   3.3753   3.7718
     3.9282   4.0132   4.1517   4.3131   4.4460   4.5359   4.5982   4.6303
     4.7311   4.9603   5.0886   5.3274   6.7343   8.2487   8.7317   8.9084
     9.0302   9.0921   9.1260   9.1481   9.1764   9.2478   9.4855   9.9363
    10.5530  10.8647

          k = 0.1250-0.5000 0.0000 ( 28202 PWs)   bands (ev):

   -50.5785 -50.5441 -50.4755 -27.0560 -26.9978 -26.9865 -26.9389 -26.9380
   -26.9306 -26.9151 -26.8814 -26.8793 -20.0851 -19.9956 -19.0162 -18.9575
   -11.4371 -11.2957 -11.0456 -10.6752 -10.5169 -10.4396 -10.3720 -10.3625
   -10.2828 -10.0826  -5.4212  -5.3519  -5.1569  -5.0935  -5.0057  -4.9982
    -4.4558  -4.3289  -4.2831  -4.1148  -4.0778  -4.0550   1.1466   1.2630
     1.3609   1.7805   1.9966   2.0141   2.4655   2.5539   2.6027   2.7046
     2.7824   2.9092   2.9206   2.9545   2.9755   3.1965   3.3042   3.7492
     3.8449   4.1236   4.1255   4.2683   4.5262   4.5587   4.5633   4.5690
     4.5826   4.8850   5.0607   5.3986   7.6615   7.8162   8.2777   8.7670
     9.1912   9.2011   9.3218   9.3279   9.3693   9.4326   9.6336  10.3641
    10.6290  10.6320

          k = 0.1250-0.3750 0.0000 ( 28238 PWs)   bands (ev):

   -50.5787 -50.5443 -50.4757 -27.0465 -26.9982 -26.9773 -26.9386 -26.9309
   -26.9295 -26.9156 -26.8818 -26.8798 -20.0981 -20.0098 -19.0337 -18.9725
   -11.4191 -11.2891 -11.1017 -10.7163 -10.5549 -10.4449 -10.4226 -10.3632
   -10.2580 -10.0578  -5.4043  -5.3476  -5.2351  -5.1166  -5.0121  -4.9004
    -4.4101  -4.3783  -4.2848  -4.2119  -4.0309  -3.9684   1.3853   1.4842
     1.5858   1.8769   2.0186   2.1661   2.4332   2.5948   2.6840   2.8076
     2.9041   2.9262   2.9977   3.0348   3.0674   3.2756   3.3753   3.7718
     3.9282   4.0132   4.1517   4.3131   4.4460   4.5359   4.5982   4.6303
     4.7311   4.9603   5.0886   5.3274   6.7343   8.2487   8.7317   8.9084
     9.0302   9.0921   9.1260   9.1481   9.1764   9.2478   9.4855   9.9363
    10.5530  10.8647

          k = 0.1250-0.2500 0.0000 ( 28222 PWs)   bands (ev):

   -50.5792 -50.5447 -50.4761 -27.0235 -26.9992 -26.9552 -26.9400 -26.9319
   -26.9168 -26.9067 -26.8828 -26.8811 -20.1293 -20.0435 -19.0755 -19.0080
   -11.4553 -11.3099 -11.2157 -10.7922 -10.6257 -10.5205 -10.4499 -10.3375
   -10.1907  -9.9894  -5.3640  -5.3363  -5.2719  -5.1743  -4.9653  -4.8672
    -4.4007  -4.3177  -4.3044  -4.2719  -3.9835  -3.9429   1.7480   1.9282
     2.1011   2.2067   2.3566   2.5089   2.5408   2.6854   2.7744   2.9062
     3.1204   3.1676   3.1836   3.2854   3.2890   3.4765   3.5638   3.8019
     3.9647   4.1736   4.2638   4.3755   4.4679   4.4851   4.6072   4.8027
     4.9775   4.9990   5.0570   5.1589   6.0238   8.1791   8.4203   8.5485
     8.5765   8.6026   8.6849   8.8366   9.1155   9.2142   9.3973  10.3892
    10.5053  10.8345

          k = 0.1250-0.1250 0.0000 ( 28197 PWs)   bands (ev):

   -50.5796 -50.5451 -50.4766 -27.0005 -27.0000 -26.9414 -26.9331 -26.9326
   -26.9180 -26.8840 -26.8835 -26.8823 -20.1600 -20.0767 -19.1167 -19.0426
   -11.5781 -11.4313 -11.2767 -10.8311 -10.6674 -10.5634 -10.4454 -10.2941
   -10.1164  -9.9115  -5.3165  -5.3068  -5.2343  -5.1454  -5.0071  -4.9224
    -4.3384  -4.2944  -4.2896  -4.2179  -4.0270  -4.0014   1.8688   2.3197
     2.5366   2.6246   2.6538   2.7600   2.7621   2.8292   2.9689   3.1099
     3.2220   3.3206   3.4296   3.6157   3.6186   3.7609   3.7900   4.1024
     4.2327   4.2739   4.3874   4.4349   4.4629   4.5589   4.7114   4.7490
     4.8351   4.9428   5.1649   5.2308   5.6293   7.8787   7.9903   8.0748
     8.1135   8.1189   8.5631   8.6210   9.0187   9.0510   9.1026  10.3054
    10.3396  10.3985

          k = 0.2500 0.0000 0.0000 ( 28241 PWs)   bands (ev):

   -50.5794 -50.5449 -50.4763 -27.0240 -26.9896 -26.9557 -26.9405 -26.9227
   -26.9173 -26.9072 -26.8816 -26.8733 -20.1408 -20.0559 -19.0904 -19.0211
   -11.5273 -11.3792 -11.2835 -10.7914 -10.6284 -10.5220 -10.4534 -10.3322
   -10.1863  -9.9846  -5.3272  -5.3168  -5.0772  -5.0650  -4.9893  -4.9697
    -4.3212  -4.2496  -4.1791  -4.1473  -4.0646  -4.0585   1.7754   1.9938
     2.1324   2.2135   2.3627   2.5444   2.6694   2.7068   2.8409   3.0404
     3.1692   3.3241   3.3814   3.4001   3.5025   3.5931   3.6844   3.8766
     3.9659   4.1345   4.2043   4.3553   4.3572   4.3937   4.5196   4.6408
     5.0342   5.0444   5.1093   5.2322   5.8893   7.9924   8.3192   8.4588
     8.4665   8.5330   8.6013   8.7712   9.0697   9.1586   9.2736  10.1455
    10.2807  10.4530

          k = 0.2500 0.1250 0.0000 ( 28222 PWs)   bands (ev):

   -50.5792 -50.5447 -50.4761 -27.0235 -26.9992 -26.9552 -26.9400 -26.9319
   -26.9168 -26.9067 -26.8828 -26.8811 -20.1293 -20.0435 -19.0755 -19.0080
   -11.4553 -11.3099 -11.2157 -10.7922 -10.6257 -10.5205 -10.4499 -10.3375
   -10.1907  -9.9894  -5.3640  -5.3363  -5.2719  -5.1743  -4.9653  -4.8672
    -4.4007  -4.3177  -4.3044  -4.2719  -3.9835  -3.9429   1.7480   1.9282
     2.1011   2.2067   2.3566   2.5089   2.5408   2.6854   2.7744   2.9062
     3.1204   3.1676   3.1836   3.2854   3.2890   3.4765   3.5638   3.8019
     3.9647   4.1736   4.2638   4.3755   4.4679   4.4851   4.6072   4.8027
     4.9775   4.9990   5.0570   5.1589   6.0238   8.1791   8.4203   8.5485
     8.5765   8.6026   8.6849   8.8366   9.1155   9.2142   9.3973  10.3892
    10.5053  10.8347

          k = 0.2500 0.2500 0.0000 ( 28191 PWs)   bands (ev):

   -50.5787 -50.5443 -50.4757 -27.0227 -27.0217 -26.9545 -26.9536 -26.9387
   -26.9157 -26.9060 -26.9050 -26.8800 -20.1012 -20.0132 -19.0392 -18.9758
   -11.2952 -11.1637 -11.0564 -10.7865 -10.6166 -10.5000 -10.4277 -10.3418
   -10.2012  -9.9998  -5.4473  -5.4438  -5.3834  -5.3317  -5.0149  -4.9027
    -4.5954  -4.4330  -4.4205  -4.3128  -4.0162  -3.9447   1.6903   1.7606
     1.8836   2.2191   2.2258   2.3472   2.3534   2.4328   2.5234   2.6418
     2.8034   2.9298   3.0300   3.0500   3.1355   3.1781   3.2049   3.7279
     3.8836   4.1216   4.3356   4.5653   4.6469   4.8179   4.8695   4.9081
     4.9444   4.9781   5.0409   5.0676   6.4446   8.6369   8.6904   8.7359
     8.8549   8.9279   8.9778   8.9954   9.2747   9.3461   9.7336  10.7134
    10.7585  10.9123

          k = 0.2500 0.3750 0.0000 ( 28160 PWs)   bands (ev):

   -50.5783 -50.5438 -50.4752 -27.0450 -27.0210 -26.9760 -26.9529 -26.9374
   -26.9281 -26.9146 -26.9043 -26.8788 -20.0728 -19.9826 -19.0024 -18.9430
   -11.2015 -11.0795 -10.8934 -10.7295 -10.5576 -10.4509 -10.4034 -10.3367
   -10.2097 -10.0073  -5.5313  -5.4935  -5.4322  -5.3595  -5.1756  -5.0529
    -4.6547  -4.5772  -4.4015  -4.3893  -4.1378  -4.0745   1.3583   1.4641
     1.5222   1.9938   2.0347   2.1045   2.2223   2.3417   2.3573   2.4713
     2.5727   2.7124   2.9481   2.9670   2.9992   3.0112   3.2310   3.8044
     4.0172   4.1991   4.4803   4.6301   4.6921   4.7744   4.7928   4.8584
     4.8879   4.9820   5.0701   5.3110   7.1602   8.7398   9.0564   9.1239
     9.1684   9.2621   9.3217   9.3726   9.4067   9.4951   9.6011  10.2182
    10.9190  11.1962

          k = 0.2500-0.5000 0.0000 ( 28142 PWs)   bands (ev):

   -50.5781 -50.5436 -50.4750 -27.0544 -27.0205 -26.9851 -26.9525 -26.9374
   -26.9369 -26.9141 -26.9038 -26.8783 -20.0609 -19.9698 -18.9870 -18.9292
   -11.1976 -11.0629 -10.8238 -10.6839 -10.5117 -10.4133 -10.3982 -10.3343
   -10.2121 -10.0090  -5.5710  -5.4841  -5.4019  -5.3215  -5.2588  -5.2200
    -4.6391  -4.5843  -4.5230  -4.2668  -4.2485  -4.1828   1.1199   1.2413
     1.3195   1.9452   2.0033   2.1239   2.1622   2.2817   2.3948   2.4068
     2.4539   2.6084   2.9114   2.9492   2.9570   2.9652   3.2667   3.8645
     4.1875   4.2797   4.5670   4.5859   4.6446   4.7000   4.7414   4.8287
     4.8457   4.9633   5.0619   5.4002   8.0839   8.2337   8.7748   9.1199
     9.3471   9.3899   9.4512   9.4605   9.5283   9.5693   9.7324  10.6188
    10.8874  10.9534

          k = 0.2500-0.3750 0.0000 ( 28160 PWs)   bands (ev):

   -50.5783 -50.5438 -50.4752 -27.0450 -27.0210 -26.9760 -26.9529 -26.9374
   -26.9281 -26.9146 -26.9043 -26.8788 -20.0728 -19.9826 -19.0024 -18.9430
   -11.2015 -11.0795 -10.8934 -10.7295 -10.5576 -10.4509 -10.4034 -10.3367
   -10.2097 -10.0073  -5.5313  -5.4935  -5.4322  -5.3595  -5.1756  -5.0529
    -4.6547  -4.5772  -4.4015  -4.3893  -4.1378  -4.0745   1.3583   1.4641
     1.5222   1.9938   2.0347   2.1045   2.2223   2.3417   2.3573   2.4713
     2.5727   2.7124   2.9481   2.9670   2.9992   3.0112   3.2310   3.8044
     4.0172   4.1991   4.4803   4.6301   4.6921   4.7744   4.7928   4.8584
     4.8879   4.9820   5.0701   5.3110   7.1602   8.7398   9.0564   9.1239
     9.1684   9.2621   9.3217   9.3726   9.4067   9.4951   9.6011  10.2182
    10.9189  11.1962

          k = 0.2500-0.2500 0.0000 ( 28191 PWs)   bands (ev):

   -50.5787 -50.5443 -50.4757 -27.0227 -27.0217 -26.9545 -26.9536 -26.9387
   -26.9157 -26.9060 -26.9050 -26.8800 -20.1012 -20.0132 -19.0392 -18.9758
   -11.2952 -11.1637 -11.0564 -10.7865 -10.6166 -10.5000 -10.4277 -10.3418
   -10.2012  -9.9998  -5.4473  -5.4438  -5.3834  -5.3317  -5.0149  -4.9027
    -4.5954  -4.4330  -4.4205  -4.3128  -4.0162  -3.9447   1.6903   1.7606
     1.8836   2.2191   2.2258   2.3472   2.3534   2.4328   2.5234   2.6418
     2.8034   2.9298   3.0300   3.0500   3.1355   3.1781   3.2049   3.7279
     3.8836   4.1216   4.3356   4.5653   4.6469   4.8179   4.8695   4.9081
     4.9444   4.9781   5.0409   5.0676   6.4446   8.6369   8.6904   8.7359
     8.8549   8.9279   8.9778   8.9954   9.2747   9.3461   9.7336  10.7134
    10.7585  10.9123

          k = 0.2500-0.1250 0.0000 ( 28222 PWs)   bands (ev):

   -50.5792 -50.5447 -50.4761 -27.0235 -26.9992 -26.9552 -26.9400 -26.9319
   -26.9168 -26.9067 -26.8828 -26.8811 -20.1293 -20.0435 -19.0755 -19.0080
   -11.4553 -11.3099 -11.2157 -10.7922 -10.6257 -10.5205 -10.4499 -10.3375
   -10.1907  -9.9894  -5.3640  -5.3363  -5.2719  -5.1743  -4.9653  -4.8672
    -4.4007  -4.3177  -4.3044  -4.2719  -3.9835  -3.9429   1.7480   1.9282
     2.1011   2.2067   2.3566   2.5089   2.5408   2.6854   2.7744   2.9062
     3.1204   3.1676   3.1836   3.2854   3.2890   3.4765   3.5638   3.8019
     3.9647   4.1736   4.2638   4.3755   4.4679   4.4851   4.6072   4.8027
     4.9775   4.9990   5.0570   5.1589   6.0238   8.1791   8.4203   8.5485
     8.5765   8.6026   8.6849   8.8366   9.1155   9.2142   9.3973  10.3892
    10.5053  10.8346

          k = 0.3750 0.0000 0.0000 ( 28244 PWs)   bands (ev):

   -50.5789 -50.5444 -50.4759 -27.0471 -26.9887 -26.9779 -26.9390 -26.9300
   -26.9218 -26.9160 -26.8803 -26.8724 -20.1085 -20.0209 -19.0466 -18.9846
   -11.5049 -11.3722 -11.1847 -10.7150 -10.5609 -10.4559 -10.4095 -10.3745
   -10.2780 -10.0785  -5.3467  -5.3141  -5.0577  -5.0034  -4.9283  -4.9186
    -4.3178  -4.2980  -4.1780  -4.1057  -3.9946  -3.9824   1.3922   1.4925
     1.6154   1.7008   2.0144   2.1099   2.5658   2.6933   2.7898   2.8466
     2.8929   3.0541   3.1586   3.1781   3.2347   3.2675   3.4332   3.6753
     3.8370   3.8821   4.0766   4.2672   4.4007   4.4136   4.5043   4.5585
     4.8354   5.0269   5.1294   5.3404   6.5937   8.0485   8.6121   8.8387
     8.9176   9.0508   9.0703   9.0830   9.0893   9.1933   9.4406   9.8162
    10.2384  10.4934

          k = 0.3750 0.1250 0.0000 ( 28238 PWs)   bands (ev):

   -50.5787 -50.5443 -50.4757 -27.0465 -26.9982 -26.9773 -26.9386 -26.9309
   -26.9295 -26.9156 -26.8818 -26.8798 -20.0981 -20.0098 -19.0337 -18.9725
   -11.4191 -11.2891 -11.1017 -10.7163 -10.5549 -10.4449 -10.4226 -10.3632
   -10.2580 -10.0578  -5.4043  -5.3476  -5.2351  -5.1166  -5.0121  -4.9004
    -4.4101  -4.3783  -4.2848  -4.2119  -4.0309  -3.9684   1.3853   1.4842
     1.5858   1.8769   2.0186   2.1661   2.4332   2.5948   2.6840   2.8076
     2.9041   2.9262   2.9977   3.0348   3.0674   3.2756   3.3753   3.7718
     3.9282   4.0132   4.1517   4.3131   4.4460   4.5359   4.5982   4.6303
     4.7311   4.9603   5.0886   5.3274   6.7343   8.2487   8.7317   8.9084
     9.0302   9.0921   9.1260   9.1481   9.1764   9.2478   9.4855   9.9363
    10.5530  10.8647

          k = 0.3750 0.2500 0.0000 ( 28160 PWs)   bands (ev):

   -50.5783 -50.5438 -50.4752 -27.0450 -27.0210 -26.9760 -26.9529 -26.9374
   -26.9281 -26.9146 -26.9043 -26.8788 -20.0728 -19.9826 -19.0024 -18.9430
   -11.2015 -11.0795 -10.8934 -10.7295 -10.5576 -10.4509 -10.4034 -10.3367
   -10.2097 -10.0073  -5.5313  -5.4935  -5.4322  -5.3595  -5.1756  -5.0529
    -4.6547  -4.5772  -4.4015  -4.3893  -4.1378  -4.0745   1.3583   1.4641
     1.5222   1.9938   2.0347   2.1045   2.2223   2.3417   2.3573   2.4713
     2.5727   2.7124   2.9481   2.9670   2.9992   3.0112   3.2310   3.8044
     4.0172   4.1991   4.4803   4.6301   4.6921   4.7744   4.7928   4.8584
     4.8879   4.9820   5.0701   5.3110   7.1602   8.7398   9.0564   9.1239
     9.1684   9.2621   9.3217   9.3726   9.4067   9.4951   9.6011  10.2182
    10.9189  11.1961

          k = 0.3750 0.3750 0.0000 ( 28127 PWs)   bands (ev):

   -50.5778 -50.5434 -50.4748 -27.0438 -27.0433 -26.9750 -26.9745 -26.9363
   -26.9270 -26.9265 -26.9135 -26.8778 -20.0471 -19.9551 -18.9706 -18.9130
   -10.9748 -10.8616 -10.7399 -10.6735 -10.5645 -10.4307 -10.3946 -10.3222
   -10.1635  -9.9571  -5.6535  -5.6299  -5.5426  -5.5255  -5.3894  -5.2866
    -4.8305  -4.7064  -4.6218  -4.5060  -4.2693  -4.1858   1.2087   1.3269
     1.3873   1.6419   1.7644   1.7784   1.8379   2.0595   2.1095   2.5899
     2.6564   2.7737   2.8002   2.8915   2.9525   3.0702   3.1271   3.8825
     4.2144   4.4818   4.6985   4.7557   4.8457   4.8852   5.0184   5.0984
     5.1053   5.1579   5.2649   5.3423   7.8717   9.2163   9.2470   9.4004
     9.4345   9.4510   9.5328   9.6680   9.6714   9.7069  10.0304  10.2202
    10.5782  11.0865

          k = 0.3750-0.5000 0.0000 ( 28172 PWs)   bands (ev):

   -50.5776 -50.5432 -50.4746 -27.0529 -27.0430 -26.9837 -26.9742 -26.9360
   -26.9358 -26.9262 -26.9131 -26.8773 -20.0364 -19.9436 -18.9573 -18.9004
   -10.9029 -10.7842 -10.7066 -10.5848 -10.5287 -10.4218 -10.4057 -10.3290
   -10.1465  -9.9370  -5.6790  -5.6552  -5.6416  -5.5056  -5.4841  -5.4605
    -4.8228  -4.7996  -4.7541  -4.4616  -4.4346  -4.1916   1.0248   1.1499
     1.2277   1.5609   1.6189   1.6975   1.7567   2.0620   2.0663   2.6078
     2.6559   2.7215   2.8669   2.8930   2.9246   3.0015   3.1919   3.9125
     4.2902   4.7015   4.7468   4.8572   4.8724   4.9792   5.0223   5.1034
     5.2138   5.2210   5.3498   5.4082   8.7775   8.9170   9.2683   9.4433
     9.5029   9.5655   9.6322   9.6817   9.7451   9.8141   9.8380  10.7323
    10.7400  11.0926

          k = 0.3750-0.3750 0.0000 ( 28127 PWs)   bands (ev):

   -50.5778 -50.5434 -50.4748 -27.0438 -27.0433 -26.9750 -26.9745 -26.9363
   -26.9270 -26.9265 -26.9135 -26.8778 -20.0471 -19.9551 -18.9706 -18.9130
   -10.9748 -10.8616 -10.7399 -10.6735 -10.5645 -10.4307 -10.3946 -10.3222
   -10.1635  -9.9571  -5.6535  -5.6299  -5.5426  -5.5255  -5.3894  -5.2866
    -4.8305  -4.7064  -4.6218  -4.5060  -4.2693  -4.1858   1.2087   1.3269
     1.3873   1.6419   1.7644   1.7784   1.8379   2.0595   2.1095   2.5899
     2.6564   2.7737   2.8002   2.8915   2.9525   3.0702   3.1271   3.8825
     4.2144   4.4818   4.6985   4.7557   4.8457   4.8852   5.0184   5.0984
     5.1053   5.1579   5.2649   5.3423   7.8717   9.2163   9.2470   9.4004
     9.4345   9.4510   9.5328   9.6680   9.6714   9.7069  10.0304  10.2202
    10.5782  11.0866

          k = 0.3750-0.2500 0.0000 ( 28160 PWs)   bands (ev):

   -50.5783 -50.5438 -50.4752 -27.0450 -27.0210 -26.9760 -26.9529 -26.9374
   -26.9281 -26.9146 -26.9043 -26.8788 -20.0728 -19.9826 -19.0024 -18.9430
   -11.2015 -11.0795 -10.8934 -10.7295 -10.5576 -10.4509 -10.4034 -10.3367
   -10.2097 -10.0073  -5.5313  -5.4935  -5.4322  -5.3595  -5.1756  -5.0529
    -4.6547  -4.5772  -4.4015  -4.3893  -4.1378  -4.0745   1.3583   1.4641
     1.5222   1.9938   2.0347   2.1045   2.2223   2.3417   2.3573   2.4713
     2.5727   2.7124   2.9481   2.9670   2.9992   3.0112   3.2310   3.8044
     4.0172   4.1991   4.4803   4.6301   4.6921   4.7744   4.7928   4.8584
     4.8879   4.9820   5.0701   5.3110   7.1602   8.7398   9.0564   9.1239
     9.1684   9.2621   9.3217   9.3726   9.4067   9.4951   9.6011  10.2182
    10.9189  11.1961

          k = 0.3750-0.1250 0.0000 ( 28238 PWs)   bands (ev):

   -50.5787 -50.5443 -50.4757 -27.0465 -26.9982 -26.9773 -26.9386 -26.9309
   -26.9295 -26.9156 -26.8818 -26.8798 -20.0981 -20.0098 -19.0337 -18.9725
   -11.4191 -11.2891 -11.1017 -10.7163 -10.5549 -10.4449 -10.4226 -10.3632
   -10.2580 -10.0578  -5.4043  -5.3476  -5.2351  -5.1166  -5.0121  -4.9004
    -4.4101  -4.3783  -4.2848  -4.2119  -4.0309  -3.9684   1.3853   1.4842
     1.5858   1.8769   2.0186   2.1661   2.4332   2.5948   2.6840   2.8076
     2.9041   2.9262   2.9977   3.0348   3.0674   3.2756   3.3753   3.7718
     3.9282   4.0132   4.1517   4.3131   4.4460   4.5359   4.5982   4.6303
     4.7311   4.9603   5.0886   5.3274   6.7343   8.2487   8.7317   8.9084
     9.0302   9.0921   9.1260   9.1481   9.1764   9.2478   9.4855   9.9363
    10.5530  10.8648

          k =-0.5000 0.0000 0.0000 ( 28214 PWs)   bands (ev):

   -50.5787 -50.5443 -50.4757 -27.0566 -26.9883 -26.9870 -26.9395 -26.9384
   -26.9214 -26.9155 -26.8798 -26.8720 -20.0951 -20.0063 -19.0282 -18.9691
   -11.5282 -11.3849 -11.1327 -10.6756 -10.5214 -10.4555 -10.3909 -10.3435
   -10.3122 -10.1130  -5.3524  -5.3081  -5.0533  -4.9772  -4.9024  -4.8985
    -4.3533  -4.2579  -4.2175  -4.0743  -3.9620  -3.9470   1.1542   1.2696
     1.3807   1.5279   1.9053   1.9911   2.5479   2.6176   2.7196   2.8002
     2.8341   2.9581   3.0011   3.0889   3.1323   3.2499   3.3720   3.5416
     3.6779   3.8540   3.9716   4.3274   4.3665   4.4909   4.5635   4.5662
     4.7598   4.9529   5.0809   5.4006   7.5215   7.6776   8.0724   8.6309
     9.0931   9.1570   9.2884   9.2991   9.2997   9.3922   9.5940  10.1224
    10.3649  10.6230

          k =-0.5000 0.1250 0.0000 ( 28202 PWs)   bands (ev):

   -50.5785 -50.5441 -50.4755 -27.0560 -26.9978 -26.9865 -26.9389 -26.9380
   -26.9306 -26.9151 -26.8814 -26.8793 -20.0851 -19.9956 -19.0162 -18.9575
   -11.4371 -11.2957 -11.0456 -10.6752 -10.5169 -10.4396 -10.3720 -10.3625
   -10.2828 -10.0826  -5.4212  -5.3519  -5.1569  -5.0935  -5.0057  -4.9982
    -4.4558  -4.3289  -4.2831  -4.1148  -4.0778  -4.0550   1.1466   1.2630
     1.3609   1.7805   1.9966   2.0141   2.4655   2.5539   2.6027   2.7046
     2.7824   2.9092   2.9206   2.9545   2.9755   3.1965   3.3042   3.7492
     3.8449   4.1236   4.1255   4.2683   4.5262   4.5587   4.5633   4.5690
     4.5826   4.8850   5.0607   5.3986   7.6615   7.8162   8.2777   8.7670
     9.1912   9.2011   9.3218   9.3279   9.3693   9.4326   9.6336  10.3641
    10.6290  10.6320

          k =-0.5000 0.2500 0.0000 ( 28142 PWs)   bands (ev):

   -50.5781 -50.5436 -50.4750 -27.0544 -27.0205 -26.9851 -26.9525 -26.9374
   -26.9369 -26.9141 -26.9038 -26.8783 -20.0609 -19.9698 -18.9870 -18.9292
   -11.1976 -11.0629 -10.8238 -10.6839 -10.5117 -10.4133 -10.3982 -10.3343
   -10.2121 -10.0090  -5.5710  -5.4841  -5.4019  -5.3215  -5.2588  -5.2200
    -4.6391  -4.5843  -4.5230  -4.2668  -4.2485  -4.1828   1.1199   1.2413
     1.3195   1.9452   2.0033   2.1239   2.1622   2.2817   2.3948   2.4068
     2.4539   2.6084   2.9114   2.9492   2.9570   2.9652   3.2667   3.8645
     4.1875   4.2797   4.5670   4.5859   4.6446   4.7000   4.7414   4.8287
     4.8457   4.9633   5.0619   5.4002   8.0839   8.2337   8.7748   9.1199
     9.3471   9.3899   9.4512   9.4605   9.5283   9.5693   9.7324  10.6188
    10.8874  10.9534

          k =-0.5000 0.3750 0.0000 ( 28172 PWs)   bands (ev):

   -50.5776 -50.5432 -50.4746 -27.0529 -27.0430 -26.9837 -26.9742 -26.9360
   -26.9358 -26.9262 -26.9131 -26.8773 -20.0364 -19.9436 -18.9573 -18.9004
   -10.9029 -10.7842 -10.7066 -10.5848 -10.5287 -10.4218 -10.4057 -10.3290
   -10.1465  -9.9370  -5.6790  -5.6552  -5.6416  -5.5056  -5.4841  -5.4605
    -4.8228  -4.7996  -4.7541  -4.4616  -4.4346  -4.1916   1.0248   1.1499
     1.2277   1.5609   1.6189   1.6975   1.7567   2.0620   2.0663   2.6078
     2.6559   2.7215   2.8669   2.8930   2.9246   3.0015   3.1919   3.9125
     4.2902   4.7015   4.7468   4.8572   4.8724   4.9792   5.0223   5.1034
     5.2138   5.2210   5.3498   5.4082   8.7775   8.9170   9.2683   9.4433
     9.5029   9.5655   9.6322   9.6817   9.7451   9.8141   9.8380  10.7323
    10.7400  11.0925

          k =-0.5000-0.5000 0.0000 ( 28120 PWs)   bands (ev):

   -50.5775 -50.5430 -50.4744 -27.0522 -27.0522 -26.9832 -26.9832 -26.9354
   -26.9354 -26.9354 -26.9127 -26.8769 -20.0262 -19.9326 -18.9449 -18.8884
   -10.7201 -10.7201 -10.6298 -10.5424 -10.5424 -10.4004 -10.4004 -10.3725
   -10.1260  -9.9088  -5.7398  -5.7398  -5.6704  -5.6064  -5.6064  -5.5301
    -4.9169  -4.9169  -4.7645  -4.5371  -4.5371  -4.1886   0.9036   1.0304
     1.1129   1.3972   1.5031   1.5381   1.5943   2.0411   2.0707   2.6840
     2.6840   2.7437   2.8470   2.8470   2.8754   3.1351   3.1351   3.9036
     4.2827   4.8631   4.8631   5.0077   5.0077   5.1411   5.1411   5.1457
     5.3661   5.4035   5.4035   5.4848   9.4462   9.4462   9.5662   9.5991
     9.5991   9.7670   9.7670   9.7905   9.8808   9.9125   9.9125   9.9600
    10.1154  11.2031

     the Fermi energy is     5.4782 ev

!    total energy              =    -912.71587233 Ry
     Harris-Foulkes estimate   =    -912.71587553 Ry
     estimated scf accuracy    <          5.8E-10 Ry

     The total energy is the sum of the following terms:

     one-electron contribution =   -4581.43867102 Ry
     hartree contribution      =    2347.93386554 Ry
     xc contribution           =    -188.11841483 Ry
     ewald contribution        =    1509.18118851 Ry
     electric field correction =      -0.27343435 Ry
     smearing contrib. (-TS)   =      -0.00040618 Ry

     convergence has been achieved in  44 iterations

     Forces acting on atoms (cartesian axes, Ry/au):

     atom    1 type  1   force =    -0.00000001    0.00000000   -0.00231881
     atom    2 type  3   force =    -0.00000001   -0.00000001    0.00141026
     atom    3 type  2   force =     0.00000001    0.00000000   -0.00272866
     atom    4 type  3   force =     0.00000000   -0.00000001    0.00002521
     atom    5 type  3   force =     0.00000001    0.00000000    0.00002525
     atom    6 type  1   force =    -0.00000000    0.00000001   -0.00040596
     atom    7 type  3   force =     0.00000000   -0.00000000   -0.00034506
     atom    8 type  2   force =    -0.00000001    0.00000006    0.00356421
     atom    9 type  3   force =     0.00000000   -0.00000004   -0.00156198
     atom   10 type  3   force =     0.00000000   -0.00000001   -0.00156203
     atom   11 type  1   force =    -0.00000000    0.00000001    0.00322828
     atom   12 type  3   force =     0.00000001   -0.00000001   -0.00504430
     atom   13 type  2   force =     0.00000001    0.00000000    0.00937270
     atom   14 type  3   force =     0.00000000   -0.00000001   -0.00240487
     atom   15 type  3   force =    -0.00000002    0.00000000   -0.00240491
     atom   16 type  1   force =     0.00000000    0.00000000    0.00725833
     atom   17 type  3   force =    -0.00000000   -0.00000001   -0.00610765

     Total force =     0.016061     Total SCF correction =     0.000091


     Computing stress (Cartesian axis) and pressure

          total   stress  (Ry/bohr**3)                   (kbar)     P=   -2.18
   0.00000376   0.00000000  -0.00000000          0.55      0.00     -0.00
   0.00000000   0.00000376   0.00000000          0.00      0.55      0.00
  -0.00000000   0.00000000  -0.00005195         -0.00      0.00     -7.64


     BFGS Geometry Optimization

     number of scf cycles    =   1
     number of bfgs steps    =   0

     enthalpy new            =    -912.7158723294 Ry

     new trust radius        =       0.0093727009 bohr
     new conv_thr            =       0.0000000010 Ry

     new unit-cell volume =   2333.64481 a.u.^3 (   345.81048 Ang^3 )
     density =      4.09553 g/cm^3

CELL_PARAMETERS (angstrom)
   3.957666634   0.000000010   0.000000000
   0.000000010   3.957666645   0.000000000
   0.000000000   0.000000000  22.078000000

ATOMIC_POSITIONS (crystal)
Ba      -0.000000001   0.000000007   0.235681362
O        0.500000002   0.499999984   0.231071854
Ti       0.499999996   0.500000029   0.319839043
O        0.500000002  -0.000000021   0.319170349
O        0.000000006   0.499999990   0.319170348
Ba      -0.000000007   0.000000052   0.412500705
O        0.500000009   0.499999947   0.409559922
Ti       0.499999948   0.500000378   0.503658333
O        0.500000020  -0.000000249   0.501120385
O        0.000000033   0.499999867   0.501120394
Ba      -0.000000010   0.000000074   0.592654137
O        0.500000011   0.499999944   0.590058060
Ti       0.499999998   0.500000039   0.687524516
O        0.499999997  -0.000000021   0.684282443
O       -0.000000000   0.499999991   0.684282441
Ba      -0.000000001   0.000000012   0.773730400
O        0.500000001   0.499999980   0.770700587



     Writing output data file BaTiO3_7_Ba-O_P4mm.save/
     NEW-OLD atomic charge density approx. for the potential
 
     Adding external electric field

     Computed dipole along edir(3) : 
        Dipole                5.3229 Ry au,         13.5295 Debye
        Dipole field          0.0287 Ry au, 
 
        E field amplitude [Ha a.u.]:  4.0000E-02
        Potential amp.        0.9341 Ry
        Total length         41.1999 bohr
 
     extrapolated charge  136.02553, renormalised to  136.00000

     total cpu time spent up to now is      164.7 secs

     Self-consistent Calculation

     iteration #  1     ecut=    80.00 Ry     beta= 0.30
     Davidson diagonalization with overlap
     ethr =  1.00E-06,  avg # of iterations =  8.2
 
     Adding external electric field

     Computed dipole along edir(3) : 
        Dipole                6.2498 Ry au,         15.8854 Debye
        Dipole field          0.0337 Ry au, 
 
        E field amplitude [Ha a.u.]:  4.0000E-02
        Potential amp.        0.5229 Ry
        Total length         41.1999 bohr
 

     total cpu time spent up to now is      170.2 secs

     total energy              =    -912.66408098 Ry
     Harris-Foulkes estimate   =    -911.88969638 Ry
     estimated scf accuracy    <       0.10396999 Ry

     iteration #  2     ecut=    80.00 Ry     beta= 0.30
     Davidson diagonalization with overlap
     ethr =  7.64E-05,  avg # of iterations = 10.2
 
     Adding external electric field

     Computed dipole along edir(3) : 
        Dipole                5.5671 Ry au,         14.1502 Debye
        Dipole field          0.0300 Ry au, 
 
        E field amplitude [Ha a.u.]:  4.0000E-02
        Potential amp.        0.8258 Ry
        Total length         41.1999 bohr
 

     total cpu time spent up to now is      174.6 secs

     total energy              =    -912.53256763 Ry
     Harris-Foulkes estimate   =    -912.79996954 Ry
     estimated scf accuracy    <       3.79660280 Ry

     iteration #  3     ecut=    80.00 Ry     beta= 0.30
     Davidson diagonalization with overlap
     ethr =  7.64E-05,  avg # of iterations =  9.0
 
     Adding external electric field

     Computed dipole along edir(3) : 
        Dipole                5.5254 Ry au,         14.0441 Debye
        Dipole field          0.0298 Ry au, 
 
        E field amplitude [Ha a.u.]:  4.0000E-02
        Potential amp.        0.8443 Ry
        Total length         41.1999 bohr
 

     total cpu time spent up to now is      178.6 secs

     total energy              =    -912.71881930 Ry
     Harris-Foulkes estimate   =    -912.73267902 Ry
     estimated scf accuracy    <       0.09322937 Ry

     iteration #  4     ecut=    80.00 Ry     beta= 0.30
     Davidson diagonalization with overlap
     ethr =  6.86E-05,  avg # of iterations =  5.1
 
     Adding external electric field

     Computed dipole along edir(3) : 
        Dipole                5.4529 Ry au,         13.8600 Debye
        Dipole field          0.0294 Ry au, 
 
        E field amplitude [Ha a.u.]:  4.0000E-02
        Potential amp.        0.8765 Ry
        Total length         41.1999 bohr
 

     total cpu time spent up to now is      180.9 secs

     total energy              =    -912.71800824 Ry
     Harris-Foulkes estimate   =    -912.71993035 Ry
     estimated scf accuracy    <       0.04333497 Ry

     iteration #  5     ecut=    80.00 Ry     beta= 0.30
     Davidson diagonalization with overlap
     ethr =  3.19E-05,  avg # of iterations =  4.8
 
     Adding external electric field

     Computed dipole along edir(3) : 
        Dipole                5.4223 Ry au,         13.7821 Debye
        Dipole field          0.0292 Ry au, 
 
        E field amplitude [Ha a.u.]:  4.0000E-02
        Potential amp.        0.8901 Ry
        Total length         41.1999 bohr
 

     total cpu time spent up to now is      183.6 secs

     total energy              =    -912.71706081 Ry
     Harris-Foulkes estimate   =    -912.71781676 Ry
     estimated scf accuracy    <       0.02941347 Ry

     iteration #  6     ecut=    80.00 Ry     beta= 0.30
     Davidson diagonalization with overlap
     ethr =  2.16E-05,  avg # of iterations =  3.7
 
     Adding external electric field

     Computed dipole along edir(3) : 
        Dipole                5.3950 Ry au,         13.7127 Debye
        Dipole field          0.0291 Ry au, 
 
        E field amplitude [Ha a.u.]:  4.0000E-02
        Potential amp.        0.9022 Ry
        Total length         41.1999 bohr
 

     total cpu time spent up to now is      185.7 secs

     total energy              =    -912.71644010 Ry
     Harris-Foulkes estimate   =    -912.71661660 Ry
     estimated scf accuracy    <       0.02050705 Ry

     iteration #  7     ecut=    80.00 Ry     beta= 0.30
     Davidson diagonalization with overlap
     ethr =  1.51E-05,  avg # of iterations =  2.6
 
     Adding external electric field

     Computed dipole along edir(3) : 
        Dipole                5.3736 Ry au,         13.6584 Debye
        Dipole field          0.0289 Ry au, 
 
        E field amplitude [Ha a.u.]:  4.0000E-02
        Potential amp.        0.9117 Ry
        Total length         41.1999 bohr
 

     total cpu time spent up to now is      187.9 secs

     total energy              =    -912.71608557 Ry
     Harris-Foulkes estimate   =    -912.71606736 Ry
     estimated scf accuracy    <       0.01169285 Ry

     iteration #  8     ecut=    80.00 Ry     beta= 0.30
     Davidson diagonalization with overlap
     ethr =  8.60E-06,  avg # of iterations =  6.4
 
     Adding external electric field

     Computed dipole along edir(3) : 
        Dipole                5.3685 Ry au,         13.6454 Debye
        Dipole field          0.0289 Ry au, 
 
        E field amplitude [Ha a.u.]:  4.0000E-02
        Potential amp.        0.9139 Ry
        Total length         41.1999 bohr
 

     total cpu time spent up to now is      190.8 secs

     total energy              =    -912.71610166 Ry
     Harris-Foulkes estimate   =    -912.71607060 Ry
     estimated scf accuracy    <       0.00388154 Ry

     iteration #  9     ecut=    80.00 Ry     beta= 0.30
     Davidson diagonalization with overlap
     ethr =  2.85E-06,  avg # of iterations =  5.2
 
     Adding external electric field

     Computed dipole along edir(3) : 
        Dipole                5.3592 Ry au,         13.6218 Debye
        Dipole field          0.0289 Ry au, 
 
        E field amplitude [Ha a.u.]:  4.0000E-02
        Potential amp.        0.9180 Ry
        Total length         41.1999 bohr
 

     total cpu time spent up to now is      193.9 secs

     total energy              =    -912.71603993 Ry
     Harris-Foulkes estimate   =    -912.71591515 Ry
     estimated scf accuracy    <       0.00192412 Ry

     iteration # 10     ecut=    80.00 Ry     beta= 0.30
     Davidson diagonalization with overlap
     ethr =  1.41E-06,  avg # of iterations =  1.8
 
     Adding external electric field

     Computed dipole along edir(3) : 
[...]
   -10.2298  -9.9348  -5.6278  -5.5557  -5.4586  -5.3120  -5.2918  -4.9848
    -4.6060  -4.5194  -4.3506  -4.3198  -4.0796  -4.0024   1.4459   1.4567
     1.5960   2.0519   2.1029   2.1224   2.2822   2.3454   2.4164   2.4702
     2.6354   2.7598   2.8901   3.0088   3.0668   3.0705   3.2768   3.7546
     4.0376   4.2685   4.5539   4.6220   4.6699   4.7761   4.8596   4.9068
     4.9526   5.0450   5.1079   5.3830   7.2272   8.8008   9.0912   9.2059
     9.2265   9.2486   9.3483   9.4272   9.4599   9.5530   9.6588  10.2746
    10.8257  11.2558

          k = 0.2500-0.2500 0.0000 ( 28191 PWs)   bands (ev):

   -50.5214 -50.4808 -50.4635 -26.9480 -26.9470 -26.9389 -26.9245 -26.9234
   -26.8730 -26.8721 -26.8552 -26.8234 -20.2425 -19.9467 -19.0067 -18.8837
   -11.2038 -11.1800 -10.9849 -10.6886 -10.6378 -10.4204 -10.4104 -10.3057
   -10.2232  -9.9272  -5.5800  -5.5123  -5.3765  -5.2641  -5.1487  -4.8338
    -4.5487  -4.3842  -4.3418  -4.2532  -3.9687  -3.8652   1.7504   1.8087
     1.9234   2.2859   2.3203   2.3229   2.3472   2.5096   2.5782   2.6661
     2.8508   2.9686   2.9894   3.1265   3.1673   3.2223   3.2669   3.6529
     3.9228   4.1965   4.4216   4.5508   4.6779   4.7724   4.8861   4.9445
     4.9949   5.0564   5.1229   5.1407   6.5118   8.6920   8.7530   8.8183
     8.8508   8.9507   9.0205   9.0450   9.3234   9.3950   9.7885  10.6553
    10.7770  10.9624

          k = 0.2500-0.1250 0.0000 ( 28222 PWs)   bands (ev):

   -50.5218 -50.4812 -50.4640 -26.9487 -26.9401 -26.9252 -26.9248 -26.9010
   -26.8737 -26.8564 -26.8504 -26.8245 -20.2701 -19.9768 -19.0418 -18.9170
   -11.3610 -11.3339 -11.1377 -10.6948 -10.6494 -10.4398 -10.4273 -10.3065
   -10.2142  -9.9167  -5.4724  -5.4074  -5.2953  -5.1067  -5.0993  -4.7979
    -4.3615  -4.2727  -4.2350  -4.1865  -3.9441  -3.8536   1.8051   1.9727
     2.1395   2.2674   2.3854   2.5321   2.6173   2.7027   2.8142   2.9630
     3.1150   3.1855   3.2267   3.3293   3.3547   3.4934   3.5691   3.7913
     4.0162   4.2255   4.3110   4.3981   4.5073   4.5319   4.6415   4.8021
     4.9802   5.0535   5.1389   5.2336   6.0913   8.2428   8.5136   8.5315
     8.6287   8.6611   8.7241   8.8622   9.1662   9.2640   9.4519  10.4026
    10.4771  10.8437

          k = 0.3750 0.0000 0.0000 ( 28244 PWs)   bands (ev):

   -50.5216 -50.4809 -50.4637 -26.9719 -26.9488 -26.9392 -26.9145 -26.8963
   -26.8905 -26.8555 -26.8403 -26.8237 -20.2498 -19.9543 -19.0144 -18.8922
   -11.4225 -11.3682 -11.1225 -10.6191 -10.5797 -10.4432 -10.3626 -10.3291
   -10.2746 -10.0066  -5.4507  -5.2779  -5.1970  -5.1380  -4.8598  -4.8511
    -4.2800  -4.2252  -4.1175  -4.0619  -3.9204  -3.9008   1.4721   1.5031
     1.6762   1.7396   2.0690   2.1388   2.6190   2.7596   2.8103   2.8568
     2.9586   3.0686   3.1276   3.1951   3.2599   3.3134   3.4941   3.7295
     3.8833   3.9021   4.1008   4.3156   4.4264   4.4382   4.5024   4.6096
     4.9119   5.0350   5.1798   5.4152   6.6609   8.1188   8.6445   8.9075
     9.0147   9.0183   9.1082   9.1380   9.1493   9.2307   9.4968   9.8752
    10.2495  10.5279

          k = 0.3750 0.1250 0.0000 ( 28238 PWs)   bands (ev):

   -50.5214 -50.4808 -50.4635 -26.9713 -26.9482 -26.9388 -26.9239 -26.9000
   -26.8958 -26.8551 -26.8495 -26.8233 -20.2395 -19.9432 -19.0018 -18.8798
   -11.3382 -11.2834 -11.0406 -10.6196 -10.5762 -10.4310 -10.3491 -10.3358
   -10.2614  -9.9857  -5.4796  -5.3724  -5.3340  -5.1478  -5.0492  -4.8318
    -4.3558  -4.3324  -4.2312  -4.1277  -3.9879  -3.8837   1.4686   1.4895
     1.6496   1.9120   2.0802   2.1950   2.4753   2.6307   2.7272   2.8670
     2.8973   2.9766   3.0058   3.0460   3.1460   3.3389   3.3496   3.7622
     3.9811   4.0470   4.2224   4.3162   4.4755   4.5687   4.6312   4.6538
     4.8099   4.9900   5.1257   5.4010   6.8014   8.3141   8.7635   8.9878
     9.0676   9.1152   9.1540   9.2134   9.2310   9.2849   9.5404   9.9929
    10.5290  10.8891

          k = 0.3750 0.2500 0.0000 ( 28160 PWs)   bands (ev):

   -50.5209 -50.4803 -50.4631 -26.9700 -26.9468 -26.9463 -26.9376 -26.9227
   -26.8945 -26.8714 -26.8540 -26.8223 -20.2145 -19.9162 -18.9711 -18.8497
   -11.1254 -11.0677 -10.8363 -10.6320 -10.5804 -10.4006 -10.3585 -10.2960
   -10.2298  -9.9348  -5.6278  -5.5557  -5.4586  -5.3120  -5.2918  -4.9848
    -4.6060  -4.5194  -4.3506  -4.3198  -4.0796  -4.0024   1.4459   1.4567
     1.5960   2.0519   2.1029   2.1224   2.2822   2.3454   2.4164   2.4702
     2.6354   2.7598   2.8901   3.0088   3.0668   3.0705   3.2768   3.7546
     4.0376   4.2685   4.5539   4.6220   4.6699   4.7761   4.8596   4.9068
     4.9526   5.0450   5.1079   5.3830   7.2272   8.8008   9.0912   9.2059
     9.2265   9.2486   9.3483   9.4272   9.4599   9.5530   9.6588  10.2746
    10.8257  11.2558

          k = 0.3750 0.3750 0.0000 ( 28127 PWs)   bands (ev):

   -50.5205 -50.4799 -50.4627 -26.9689 -26.9684 -26.9456 -26.9451 -26.9366
   -26.8934 -26.8930 -26.8529 -26.8212 -20.1891 -19.8887 -18.9400 -18.8191
   -10.9051 -10.8389 -10.6421 -10.6252 -10.5827 -10.3743 -10.3533 -10.2671
   -10.2006  -9.8842  -5.7878  -5.6633  -5.5543  -5.5187  -5.4573  -5.2185
    -4.7807  -4.6498  -4.5760  -4.4354  -4.2024  -4.1273   1.2947   1.3160
     1.4678   1.7396   1.7502   1.8116   1.9206   2.1165   2.1331   2.5737
     2.7031   2.7817   2.8160   2.9423   3.0046   3.1111   3.1892   3.8380
     4.2389   4.5238   4.7069   4.7572   4.8895   4.9233   5.0757   5.0870
     5.1522   5.2265   5.3409   5.4125   7.9386   9.2754   9.3142   9.4600
     9.4762   9.4852   9.5254   9.7104   9.7273   9.7558  10.0977  10.2882
    10.6368  10.9831

          k = 0.3750-0.5000 0.0000 ( 28172 PWs)   bands (ev):

   -50.5203 -50.4797 -50.4625 -26.9778 -26.9681 -26.9546 -26.9447 -26.9361
   -26.9022 -26.8927 -26.8525 -26.8208 -20.1785 -19.8773 -18.9270 -18.8063
   -10.8317 -10.7590 -10.6086 -10.5496 -10.5442 -10.3907 -10.3262 -10.2756
   -10.1881  -9.8640  -5.7889  -5.7756  -5.6051  -5.5909  -5.4373  -5.3941
    -4.7735  -4.7534  -4.6975  -4.3926  -4.3686  -4.1350   1.1145   1.1362
     1.3088   1.6586   1.6624   1.6702   1.8397   2.0879   2.1195   2.6162
     2.6807   2.7446   2.8368   2.9626   2.9736   3.0656   3.2472   3.8668
     4.3368   4.6885   4.7113   4.9014   4.9203   5.0254   5.0985   5.1489
     5.2038   5.2845   5.4313   5.4767   8.8446   8.9840   9.3271   9.5061
     9.5327   9.6331   9.6576   9.6861   9.7919   9.8723   9.8877  10.7946
    10.8025  10.9867

          k = 0.3750-0.3750 0.0000 ( 28127 PWs)   bands (ev):

   -50.5205 -50.4799 -50.4627 -26.9689 -26.9684 -26.9456 -26.9451 -26.9366
   -26.8934 -26.8930 -26.8529 -26.8212 -20.1891 -19.8887 -18.9400 -18.8191
   -10.9051 -10.8389 -10.6421 -10.6252 -10.5827 -10.3743 -10.3533 -10.2671
   -10.2006  -9.8842  -5.7878  -5.6633  -5.5543  -5.5187  -5.4573  -5.2185
    -4.7807  -4.6498  -4.5760  -4.4354  -4.2024  -4.1273   1.2947   1.3160
     1.4678   1.7396   1.7502   1.8116   1.9206   2.1165   2.1331   2.5737
     2.7031   2.7817   2.8160   2.9423   3.0046   3.1111   3.1892   3.8380
     4.2389   4.5238   4.7069   4.7572   4.8895   4.9233   5.0757   5.0870
     5.1522   5.2265   5.3409   5.4125   7.9386   9.2754   9.3142   9.4600
     9.4762   9.4852   9.5254   9.7104   9.7273   9.7558  10.0977  10.2882
    10.6368  10.9831

          k = 0.3750-0.2500 0.0000 ( 28160 PWs)   bands (ev):

   -50.5209 -50.4803 -50.4631 -26.9700 -26.9468 -26.9463 -26.9376 -26.9227
   -26.8945 -26.8714 -26.8540 -26.8223 -20.2145 -19.9162 -18.9711 -18.8497
   -11.1254 -11.0677 -10.8363 -10.6320 -10.5804 -10.4006 -10.3585 -10.2960
   -10.2298  -9.9348  -5.6278  -5.5557  -5.4586  -5.3120  -5.2918  -4.9848
    -4.6060  -4.5194  -4.3506  -4.3198  -4.0796  -4.0024   1.4459   1.4567
     1.5960   2.0519   2.1029   2.1224   2.2822   2.3454   2.4164   2.4702
     2.6354   2.7598   2.8901   3.0088   3.0668   3.0705   3.2768   3.7546
     4.0376   4.2685   4.5539   4.6220   4.6699   4.7761   4.8596   4.9068
     4.9526   5.0450   5.1079   5.3830   7.2272   8.8008   9.0912   9.2059
     9.2265   9.2486   9.3483   9.4272   9.4599   9.5530   9.6588  10.2746
    10.8257  11.2558

          k = 0.3750-0.1250 0.0000 ( 28238 PWs)   bands (ev):

   -50.5214 -50.4808 -50.4635 -26.9713 -26.9482 -26.9388 -26.9239 -26.9000
   -26.8958 -26.8551 -26.8495 -26.8233 -20.2395 -19.9432 -19.0018 -18.8798
   -11.3382 -11.2834 -11.0406 -10.6196 -10.5762 -10.4310 -10.3491 -10.3358
   -10.2614  -9.9857  -5.4796  -5.3724  -5.3340  -5.1478  -5.0492  -4.8318
    -4.3558  -4.3324  -4.2312  -4.1277  -3.9879  -3.8837   1.4686   1.4895
     1.6496   1.9120   2.0802   2.1950   2.4753   2.6307   2.7272   2.8670
     2.8973   2.9766   3.0058   3.0460   3.1460   3.3389   3.3496   3.7622
     3.9811   4.0470   4.2224   4.3162   4.4755   4.5687   4.6312   4.6538
     4.8099   4.9900   5.1257   5.4010   6.8014   8.3141   8.7635   8.9878
     9.0676   9.1152   9.1540   9.2134   9.2310   9.2849   9.5404   9.9929
    10.5290  10.8891

          k =-0.5000-0.0000 0.0000 ( 28214 PWs)   bands (ev):

   -50.5214 -50.4808 -50.4635 -26.9813 -26.9584 -26.9386 -26.9141 -26.9054
   -26.8901 -26.8550 -26.8400 -26.8232 -20.2365 -19.9398 -18.9969 -18.8759
   -11.4530 -11.3698 -11.0753 -10.5826 -10.5343 -10.4490 -10.3829 -10.2915
   -10.2715 -10.0415  -5.4435  -5.2832  -5.1943  -5.1119  -4.8338  -4.8315
    -4.3052  -4.1812  -4.1696  -4.0301  -3.8895  -3.8660   1.2405   1.2673
     1.4514   1.5698   1.9285   2.0489   2.6074   2.6346   2.7900   2.8256
     2.9099   2.9357   2.9786   3.1402   3.1676   3.2423   3.4340   3.5976
     3.7213   3.8798   3.9964   4.3389   4.4220   4.5127   4.5772   4.5859
     4.8360   5.0182   5.0988   5.4717   7.5889   7.7440   8.1427   8.6630
     9.1439   9.2521   9.2549   9.3395   9.3782   9.4181   9.6497  10.1880
    10.3557  10.6575

          k =-0.5000 0.1250 0.0000 ( 28202 PWs)   bands (ev):

   -50.5212 -50.4806 -50.4634 -26.9807 -26.9577 -26.9382 -26.9235 -26.9049
   -26.8996 -26.8546 -26.8491 -26.8228 -20.2267 -19.9292 -18.9851 -18.8641
   -11.3630 -11.2794 -10.9891 -10.5797 -10.5343 -10.4298 -10.3553 -10.2877
   -10.2737 -10.0108  -5.4815  -5.3502  -5.2966  -5.2295  -4.9384  -4.9303
    -4.3979  -4.2804  -4.2318  -4.0672  -3.9888  -3.9832   1.2354   1.2563
     1.4342   1.8179   2.0474   2.0537   2.4953   2.6106   2.6373   2.7583
     2.8053   2.8800   2.9540   3.0095   3.0368   3.2662   3.2713   3.7487
     3.8929   4.1365   4.1994   4.2722   4.5400   4.5636   4.5997   4.6317
     4.6630   4.9484   5.0787   5.4690   7.7289   7.8827   8.3428   8.7976
     9.2416   9.2924   9.3003   9.3737   9.4378   9.4579   9.6874  10.4307
    10.5855  10.6903

          k =-0.5000 0.2500 0.0000 ( 28142 PWs)   bands (ev):

   -50.5208 -50.4801 -50.4629 -26.9792 -26.9562 -26.9459 -26.9371 -26.9222
   -26.9035 -26.8710 -26.8535 -26.8218 -20.2027 -19.9034 -18.9562 -18.8354
   -11.1261 -11.0431 -10.7706 -10.5862 -10.5359 -10.3961 -10.3171 -10.2929
   -10.2339  -9.9365  -5.6040  -5.5388  -5.4975  -5.4567  -5.1910  -5.1524
    -4.5790  -4.5351  -4.4789  -4.1966  -4.1778  -4.1217   1.2117   1.2274
     1.3981   1.9947   2.0573   2.1633   2.2577   2.2693   2.3762   2.4722
     2.5084   2.6603   2.8460   2.9736   3.0269   3.0394   3.3090   3.8285
     4.2043   4.3130   4.5818   4.6198   4.6617   4.7710   4.8110   4.8115
     4.9142   5.0341   5.0913   5.4695   8.1511   8.3003   8.8348   9.1501
     9.4253   9.4425   9.4599   9.5000   9.5526   9.6315   9.7818  10.6818
    10.8533  10.9438

          k =-0.5000 0.3750 0.0000 ( 28172 PWs)   bands (ev):

   -50.5203 -50.4797 -50.4625 -26.9778 -26.9681 -26.9546 -26.9447 -26.9361
   -26.9022 -26.8927 -26.8525 -26.8208 -20.1785 -19.8773 -18.9270 -18.8063
   -10.8317 -10.7590 -10.6086 -10.5496 -10.5442 -10.3907 -10.3262 -10.2756
   -10.1881  -9.8640  -5.7889  -5.7756  -5.6051  -5.5909  -5.4373  -5.3941
    -4.7735  -4.7534  -4.6975  -4.3926  -4.3686  -4.1350   1.1145   1.1362
     1.3088   1.6586   1.6624   1.6702   1.8397   2.0879   2.1195   2.6162
     2.6807   2.7446   2.8368   2.9626   2.9736   3.0656   3.2472   3.8668
     4.3368   4.6885   4.7113   4.9014   4.9203   5.0254   5.0985   5.1489
     5.2038   5.2845   5.4313   5.4767   8.8446   8.9840   9.3271   9.5061
     9.5327   9.6331   9.6576   9.6861   9.7919   9.8723   9.8877  10.7946
    10.8025  10.9867

          k =-0.5000-0.5000 0.0000 ( 28120 PWs)   bands (ev):

   -50.5201 -50.4795 -50.4623 -26.9772 -26.9772 -26.9540 -26.9540 -26.9357
   -26.9016 -26.9016 -26.8521 -26.8204 -20.1684 -19.8664 -18.9148 -18.7941
   -10.6224 -10.6224 -10.5932 -10.5593 -10.5593 -10.3413 -10.3239 -10.3239
   -10.1715  -9.8357  -5.8725  -5.8725  -5.6440  -5.5874  -5.5379  -5.5379
    -4.8679  -4.8679  -4.7149  -4.4686  -4.4686  -4.1344   0.9928   1.0173
     1.1940   1.4952   1.5107   1.5444   1.6778   2.0646   2.1242   2.6820
     2.6820   2.7977   2.8823   2.8823   2.9094   3.1945   3.1945   3.8517
     4.3365   4.8242   4.8242   5.0588   5.0588   5.1783   5.1783   5.2450
     5.3488   5.4744   5.4744   5.5664   9.5176   9.5176   9.6342   9.6342
     9.6492   9.7793   9.7990   9.7990   9.9395   9.9730   9.9730  10.0323
    11.0603  11.0603

     the Fermi energy is     5.5491 ev

!    total energy              =    -912.71618102 Ry
     Harris-Foulkes estimate   =    -912.71618106 Ry
     estimated scf accuracy    <          9.5E-13 Ry

     The total energy is the sum of the following terms:

     one-electron contribution =   -4567.35512705 Ry
     hartree contribution      =    2341.06422641 Ry
     xc contribution           =    -188.10906988 Ry
     ewald contribution        =    1501.95883216 Ry
     electric field correction =      -0.27463698 Ry
     smearing contrib. (-TS)   =      -0.00040568 Ry

     convergence has been achieved in  23 iterations

     Forces acting on atoms (cartesian axes, Ry/au):

     atom    1 type  1   force =    -0.00000000    0.00000000   -0.00032209
     atom    2 type  3   force =    -0.00000000   -0.00000001   -0.00118069
     atom    3 type  2   force =     0.00000000    0.00000001   -0.00016297
     atom    4 type  3   force =    -0.00000000   -0.00000000   -0.00071164
     atom    5 type  3   force =     0.00000000   -0.00000001   -0.00071163
     atom    6 type  1   force =    -0.00000000    0.00000001   -0.00068929
     atom    7 type  3   force =    -0.00000000   -0.00000000   -0.00021480
     atom    8 type  2   force =    -0.00000001    0.00000007   -0.00149221
     atom    9 type  3   force =     0.00000001   -0.00000006   -0.00007231
     atom   10 type  3   force =     0.00000000   -0.00000002   -0.00007228
     atom   11 type  1   force =    -0.00000000    0.00000001   -0.00047049
     atom   12 type  3   force =     0.00000000   -0.00000001    0.00156558
     atom   13 type  2   force =    -0.00000001    0.00000001   -0.00026656
     atom   14 type  3   force =     0.00000002   -0.00000000    0.00112771
     atom   15 type  3   force =    -0.00000002   -0.00000001    0.00112769
     atom   16 type  1   force =     0.00000000    0.00000001    0.00067972
     atom   17 type  3   force =     0.00000001   -0.00000001    0.00186625

     Total force =     0.003811     Total SCF correction =     0.000004


     Computing stress (Cartesian axis) and pressure

          total   stress  (Ry/bohr**3)                   (kbar)     P=   -2.86
  -0.00000386   0.00000000  -0.00000000         -0.57      0.00     -0.00
   0.00000000  -0.00000386   0.00000000          0.00     -0.57      0.00
  -0.00000000   0.00000000  -0.00005060         -0.00      0.00     -7.44


     number of scf cycles    =  50
     number of bfgs steps    =   5

     enthalpy old            =    -912.7161847701 Ry
     enthalpy new            =    -912.7161810240 Ry

     CASE: enthalpy_new > enthalpy_old

     new trust radius        =       0.0001817896 bohr
     new conv_thr            =            1.0E-11 Ry

     new unit-cell volume =   2333.59708 a.u.^3 (   345.80341 Ang^3 )
     density =      4.09562 g/cm^3

CELL_PARAMETERS (angstrom)
   3.957626209  -0.000000002   0.000000000
  -0.000000002   3.957626121   0.000000000
   0.000000000   0.000000000  22.078000000

ATOMIC_POSITIONS (crystal)
Ba      -0.000000002   0.000000007   0.235443118
O        0.500000000   0.499999988   0.231091882
Ti       0.499999991   0.500000030   0.319736816
O        0.500000006  -0.000000027   0.319062391
O        0.000000007   0.499999992   0.319062387
Ba      -0.000000009   0.000000060   0.412399168
O        0.500000014   0.499999932   0.409436958
Ti       0.499999935   0.500000441   0.503665438
O        0.500000011  -0.000000289   0.501016065
O        0.000000043   0.499999831   0.501016061
Ba      -0.000000011   0.000000089   0.592819855
O        0.500000012   0.499999927   0.589900636
Ti       0.499999996   0.500000050   0.687611029
O        0.499999993  -0.000000024   0.684304378
O        0.000000018   0.499999999   0.684304384
Ba      -0.000000002   0.000000015   0.774428142
O        0.500000001   0.499999982   0.770826568



     Writing output data file BaTiO3_7_Ba-O_P4mm.save/
     NEW-OLD atomic charge density approx. for the potential
 
     Adding external electric field

     Computed dipole along edir(3) : 
        Dipole                5.3829 Ry au,         13.6819 Debye
        Dipole field          0.0290 Ry au, 
 
        E field amplitude [Ha a.u.]:  4.0000E-02
        Potential amp.        0.9075 Ry
        Total length         41.1999 bohr
 
     extrapolated charge  136.00559, renormalised to  136.00000

     Writing output data file BaTiO3_7_Ba-O_P4mm.save/
 
     init_run     :      1.21s CPU      1.27s WALL (       1 calls)
     electrons    :   2450.93s CPU   2501.90s WALL (      50 calls)
     update_pot   :     20.68s CPU     20.83s WALL (      50 calls)
     forces       :     24.62s CPU     24.97s WALL (      50 calls)
     stress       :     94.60s CPU     95.77s WALL (      50 calls)

     Called by init_run:
     wfcinit      :      0.67s CPU      0.70s WALL (       1 calls)
     potinit      :      0.29s CPU      0.30s WALL (       1 calls)
     hinit0       :      0.16s CPU      0.18s WALL (       1 calls)

     Called by electrons:
     c_bands      :   2199.61s CPU   2229.05s WALL (    1097 calls)
     sum_band     :    229.88s CPU    234.57s WALL (    1097 calls)
     v_of_rho     :     13.24s CPU     13.45s WALL (    1138 calls)
     mix_rho      :      4.71s CPU      4.77s WALL (    1097 calls)

     Called by c_bands:
     init_us_2    :     35.30s CPU     36.05s WALL (   20655 calls)
     cegterg      :   1872.38s CPU   1899.37s WALL (    9882 calls)

     Called by sum_band:

     Called by *egterg:
     h_psi        :   1097.64s CPU   1118.39s WALL (   43097 calls)
     g_psi        :      4.19s CPU      4.25s WALL (   33206 calls)
     cdiaghg      :    496.20s CPU    499.67s WALL (   42557 calls)

     Called by h_psi:
     h_psi:pot    :   1091.33s CPU   1111.94s WALL (   43097 calls)
     h_psi:calbec :     97.10s CPU     98.37s WALL (   43097 calls)
     vloc_psi     :    891.04s CPU    909.40s WALL (   43097 calls)
     add_vuspsi   :    102.84s CPU    103.91s WALL (   43097 calls)

     General routines
     calbec       :    107.47s CPU    108.92s WALL (   45347 calls)
     fft          :      9.95s CPU     10.16s WALL (   14816 calls)
     ffts         :      1.17s CPU      1.19s WALL (    2235 calls)
     fftw         :   1035.41s CPU   1056.66s WALL ( 4425420 calls)
     interpolate  :      1.29s CPU      1.40s WALL (    1138 calls)
     davcio       :      0.00s CPU      0.10s WALL (       9 calls)
 
     Parallel routines
     fft_scatt_xy :     85.66s CPU     87.37s WALL ( 4442471 calls)
     fft_scatt_yz :    599.87s CPU    612.23s WALL ( 4442471 calls)
 
     PWSCF        :  43m15.18s CPU  44m24.97s WALL

 
   This run was terminated on:  16:10:32   4Jun2021            

=------------------------------------------------------------------------------=
   JOB DONE.
=------------------------------------------------------------------------------=
