
     Program PWSCF v.6.4.1 starts on  2Jun2021 at 17:27:25 

     This program is part of the open-source Quantum ESPRESSO suite
     for quantum simulation of materials; please cite
         "P. Giannozzi et al., J. Phys.:Condens. Matter 21 395502 (2009);
         "P. Giannozzi et al., J. Phys.:Condens. Matter 29 465901 (2017);
          URL http://www.quantum-espresso.org", 
     in publications or presentations arising from this work. More details at
     http://www.quantum-espresso.org/quote

     Parallel version (MPI & OpenMP), running on     160 processor cores
     Number of MPI processes:               160
     Threads/MPI process:                     1

     MPI processes distributed on     4 nodes
     K-points division:     npool     =       4
     R & G space division:  proc/nbgrp/npool/nimage =      40
     Waiting for input...
     Reading input from standard input

     Current dimensions of program PWSCF are:
     Max number of different atomic species (ntypx) = 10
     Max number of k-points (npk) =  40000
     Max angular momentum in pseudopotentials (lmaxx) =  3
     Presently no symmetry can be used with electric field


     Subspace diagonalization in iterative solution of the eigenvalue problem:
     one sub-group per band group will be used
     scalapack distributed-memory algorithm (size of sub-group:  4*  4 procs)

 
     Parallelization info
     --------------------
     sticks:   dense  smooth     PW     G-vecs:    dense   smooth      PW
     Min          44      36     10                 7966     5720     862
     Max          45      37     11                 8001     5735     885
     Sum        1789    1449    421               319509   228925   34763
 


     bravais-lattice index     =            0
     lattice parameter (alat)  =       7.5324  a.u.
     unit-cell volume          =    2367.1780 (a.u.)^3
     number of atoms/cell      =           17
     number of atomic types    =            3
     number of electrons       =       136.00
     number of Kohn-Sham states=           82
     kinetic-energy cutoff     =      80.0000  Ry
     charge density cutoff     =     400.0000  Ry
     convergence threshold     =      1.0E-09
     mixing beta               =       0.3000
     number of iterations used =            8  plain     mixing
     Exchange-correlation      = PBESOL ( 1  4 10  8 0 0)
     nstep                     =           50


     celldm(1)=   7.532448  celldm(2)=   0.000000  celldm(3)=   0.000000
     celldm(4)=   0.000000  celldm(5)=   0.000000  celldm(6)=   0.000000

     crystal axes: (cart. coord. in units of alat)
               a(1) = (   1.000000   0.000000   0.000000 )  
               a(2) = (   0.000000   1.000000   0.000000 )  
               a(3) = (   0.000000   0.000000   5.538886 )  

     reciprocal axes: (cart. coord. in units 2 pi/alat)
               b(1) = (  1.000000  0.000000  0.000000 )  
               b(2) = (  0.000000  1.000000  0.000000 )  
               b(3) = (  0.000000  0.000000  0.180542 )  


     PseudoPot. # 1 for Ba read from file:
     ./pseudo/Ba.pbesol-nc-sr.upf
     MD5 check sum: 716a24e91cb490012dd496b6aa92d00e
     Pseudo is Norm-conserving + core correction, Zval = 10.0
     Generated using ONCVPSP code by D. R. Hamann
     Using radial grid of 1936 points,  6 beta functions with: 
                l(1) =   0
                l(2) =   0
                l(3) =   1
                l(4) =   1
                l(5) =   2
                l(6) =   2

     PseudoPot. # 2 for Ti read from file:
     ./pseudo/Ti.pbesol-nc-sr.upf
     MD5 check sum: c7cef475492d2ee3d0561e3a3e59fcd4
     Pseudo is Norm-conserving + core correction, Zval = 12.0
     Generated using ONCVPSP code by D. R. Hamann
     Using radial grid of 1586 points,  6 beta functions with: 
                l(1) =   0
                l(2) =   0
                l(3) =   1
                l(4) =   1
                l(5) =   2
                l(6) =   2

     PseudoPot. # 3 for O  read from file:
     ./pseudo/O.pbesol-nc-sr.upf
     MD5 check sum: f226cbcd508cec715ff87a8f75a1dfba
     Pseudo is Norm-conserving + core correction, Zval =  6.0
     Generated using ONCVPSP code by D. R. Hamann
     Using radial grid of  936 points,  5 beta functions with: 
                l(1) =   0
                l(2) =   0
                l(3) =   1
                l(4) =   1
                l(5) =   2

     atomic species   valence    mass     pseudopotential
        Ba            10.00   137.32700     Ba( 1.00)
        Ti            12.00    47.86700     Ti( 1.00)
        O              6.00    15.99940     O ( 1.00)

      cell mass =  64.81286 AMU 

     No symmetry found



   Cartesian axes

     site n.     atom                  positions (alat units)
         1           Ba  tau(   1) = (   0.0000000   0.0000000   1.2739438  )
         2           O   tau(   2) = (   0.5000000   0.5000000   1.2507130  )
         3           Ti  tau(   3) = (   0.5000000   0.5000000   1.7941119  )
         4           O   tau(   4) = (   0.5000000   0.0000000   1.7648209  )
         5           O   tau(   5) = (   0.0000000   0.5000000   1.7648209  )
         6           Ba  tau(   6) = (   0.0000000   0.0000000   2.2839789  )
         7           O   tau(   7) = (   0.5000000   0.5000000   2.2607481  )
         8           Ti  tau(   8) = (   0.5000000   0.5000000   2.8041470  )
         9           O   tau(   9) = (   0.5000000   0.0000000   2.7748560  )
        10           O   tau(  10) = (   0.0000000   0.5000000   2.7748560  )
        11           Ba  tau(  11) = (   0.0000000   0.0000000   3.2940140  )
        12           O   tau(  12) = (   0.5000000   0.5000000   3.2707832  )
        13           Ti  tau(  13) = (   0.5000000   0.5000000   3.8141821  )
        14           O   tau(  14) = (   0.5000000   0.0000000   3.7848911  )
        15           O   tau(  15) = (   0.0000000   0.5000000   3.7848911  )
        16           Ba  tau(  16) = (   0.0000000   0.0000000   4.3040492  )
        17           O   tau(  17) = (   0.5000000   0.5000000   4.2808184  )

     number of k points=    34  gaussian smearing, width (Ry)=  0.0010
                       cart. coord. in units 2pi/alat
        k(    1) = (   0.0000000   0.0000000   0.0000000), wk =   0.0312500
        k(    2) = (   0.0000000   0.1250000   0.0000000), wk =   0.0625000
        k(    3) = (   0.0000000   0.2500000   0.0000000), wk =   0.0625000
        k(    4) = (   0.0000000   0.3750000   0.0000000), wk =   0.0625000
        k(    5) = (   0.0000000  -0.5000000   0.0000000), wk =   0.0312500
        k(    6) = (   0.1250000   0.0000000   0.0000000), wk =   0.0625000
        k(    7) = (   0.1250000   0.1250000   0.0000000), wk =   0.0625000
        k(    8) = (   0.1250000   0.2500000   0.0000000), wk =   0.0625000
        k(    9) = (   0.1250000   0.3750000   0.0000000), wk =   0.0625000
        k(   10) = (   0.1250000  -0.5000000   0.0000000), wk =   0.0625000
        k(   11) = (   0.1250000  -0.3750000   0.0000000), wk =   0.0625000
        k(   12) = (   0.1250000  -0.2500000   0.0000000), wk =   0.0625000
        k(   13) = (   0.1250000  -0.1250000   0.0000000), wk =   0.0625000
        k(   14) = (   0.2500000   0.0000000   0.0000000), wk =   0.0625000
        k(   15) = (   0.2500000   0.1250000   0.0000000), wk =   0.0625000
        k(   16) = (   0.2500000   0.2500000   0.0000000), wk =   0.0625000
        k(   17) = (   0.2500000   0.3750000   0.0000000), wk =   0.0625000
        k(   18) = (   0.2500000  -0.5000000   0.0000000), wk =   0.0625000
        k(   19) = (   0.2500000  -0.3750000   0.0000000), wk =   0.0625000
        k(   20) = (   0.2500000  -0.2500000   0.0000000), wk =   0.0625000
        k(   21) = (   0.2500000  -0.1250000   0.0000000), wk =   0.0625000
        k(   22) = (   0.3750000   0.0000000   0.0000000), wk =   0.0625000
        k(   23) = (   0.3750000   0.1250000   0.0000000), wk =   0.0625000
        k(   24) = (   0.3750000   0.2500000   0.0000000), wk =   0.0625000
        k(   25) = (   0.3750000   0.3750000   0.0000000), wk =   0.0625000
        k(   26) = (   0.3750000  -0.5000000   0.0000000), wk =   0.0625000
        k(   27) = (   0.3750000  -0.3750000   0.0000000), wk =   0.0625000
        k(   28) = (   0.3750000  -0.2500000   0.0000000), wk =   0.0625000
        k(   29) = (   0.3750000  -0.1250000   0.0000000), wk =   0.0625000
        k(   30) = (  -0.5000000   0.0000000   0.0000000), wk =   0.0312500
        k(   31) = (  -0.5000000   0.1250000   0.0000000), wk =   0.0625000
        k(   32) = (  -0.5000000   0.2500000   0.0000000), wk =   0.0625000
        k(   33) = (  -0.5000000   0.3750000   0.0000000), wk =   0.0625000
        k(   34) = (  -0.5000000  -0.5000000   0.0000000), wk =   0.0312500

     Dense  grid:   319509 G-vectors     FFT dimensions: (  48,  48, 270)

     Smooth grid:   228925 G-vectors     FFT dimensions: (  45,  45, 240)

     Estimated max dynamical RAM per process >      35.96 MB

     Estimated total dynamical RAM >       5.62 GB

     Initial potential from superposition of free atoms

     starting charge  135.93448, renormalised to  136.00000

     negative rho (up, down):  4.559E-06 0.000E+00
 
     Adding external electric field

     Computed dipole along edir(3) : 
        Dipole                0.0211 Ry au,          0.0537 Debye
        Dipole field          0.0001 Ry au, 
 
        Potential amp.       -0.0092 Ry
        Total length         41.1999 bohr
 
     Starting wfcs are   90 randomized atomic wfcs

     total cpu time spent up to now is        4.1 secs

     Self-consistent Calculation

     iteration #  1     ecut=    80.00 Ry     beta= 0.30
     Davidson diagonalization with overlap
     ethr =  1.00E-02,  avg # of iterations =  2.9

     negative rho (up, down):  6.725E-07 0.000E+00
 
     Adding external electric field

     Computed dipole along edir(3) : 
        Dipole                1.5075 Ry au,          3.8317 Debye
        Dipole field          0.0080 Ry au, 
 
        Potential amp.       -0.6594 Ry
        Total length         41.1999 bohr
 

     total cpu time spent up to now is        6.4 secs

     total energy              =    -911.21898827 Ry
     Harris-Foulkes estimate   =    -914.08520086 Ry
     estimated scf accuracy    <       6.40668132 Ry

     iteration #  2     ecut=    80.00 Ry     beta= 0.30
     Davidson diagonalization with overlap
     ethr =  4.71E-03,  avg # of iterations =  4.9

     negative rho (up, down):  1.175E-07 0.000E+00
 
     Adding external electric field

     Computed dipole along edir(3) : 
        Dipole               -1.4217 Ry au,         -3.6135 Debye
        Dipole field         -0.0075 Ry au, 
 
        Potential amp.        0.6219 Ry
        Total length         41.1999 bohr
 

     total cpu time spent up to now is        9.1 secs

     total energy              =    -904.45044654 Ry
     Harris-Foulkes estimate   =    -914.42856354 Ry
     estimated scf accuracy    <     290.57541121 Ry

     iteration #  3     ecut=    80.00 Ry     beta= 0.30
     Davidson diagonalization with overlap
     ethr =  4.71E-03,  avg # of iterations =  8.6
 
     Adding external electric field

     Computed dipole along edir(3) : 
        Dipole                0.1612 Ry au,          0.4098 Debye
        Dipole field          0.0009 Ry au, 
 
        Potential amp.       -0.0705 Ry
        Total length         41.1999 bohr
 

     total cpu time spent up to now is       13.1 secs

     total energy              =    -906.52513968 Ry
     Harris-Foulkes estimate   =    -914.83725825 Ry
     estimated scf accuracy    <     394.88300925 Ry

     iteration #  4     ecut=    80.00 Ry     beta= 0.30
     Davidson diagonalization with overlap
     ethr =  4.71E-03,  avg # of iterations =  4.9
 
     Adding external electric field

     Computed dipole along edir(3) : 
        Dipole                0.1986 Ry au,          0.5049 Debye
        Dipole field          0.0011 Ry au, 
 
        Potential amp.       -0.0869 Ry
        Total length         41.1999 bohr
 

     total cpu time spent up to now is       15.7 secs

     total energy              =    -912.68617256 Ry
     Harris-Foulkes estimate   =    -912.97888766 Ry
     estimated scf accuracy    <       2.15047020 Ry

     iteration #  5     ecut=    80.00 Ry     beta= 0.30
     Davidson diagonalization with overlap
     ethr =  1.58E-03,  avg # of iterations =  3.9
 
     Adding external electric field

     Computed dipole along edir(3) : 
        Dipole                0.2428 Ry au,          0.6171 Debye
        Dipole field          0.0013 Ry au, 
 
        Potential amp.       -0.1062 Ry
        Total length         41.1999 bohr
 

     total cpu time spent up to now is       18.0 secs

     total energy              =    -912.53462834 Ry
     Harris-Foulkes estimate   =    -912.73534991 Ry
     estimated scf accuracy    <       1.32640462 Ry

     iteration #  6     ecut=    80.00 Ry     beta= 0.30
     Davidson diagonalization with overlap
     ethr =  9.75E-04,  avg # of iterations =  3.3
 
     Adding external electric field

     Computed dipole along edir(3) : 
        Dipole                0.2835 Ry au,          0.7206 Debye
        Dipole field          0.0015 Ry au, 
 
        Potential amp.       -0.1240 Ry
        Total length         41.1999 bohr
 

     total cpu time spent up to now is       20.4 secs

     total energy              =    -912.44808435 Ry
     Harris-Foulkes estimate   =    -912.56389478 Ry
     estimated scf accuracy    <       0.72442998 Ry

     iteration #  7     ecut=    80.00 Ry     beta= 0.30
     Davidson diagonalization with overlap
     ethr =  5.33E-04,  avg # of iterations =  5.6
 
     Adding external electric field

     Computed dipole along edir(3) : 
        Dipole                0.3481 Ry au,          0.8848 Debye
        Dipole field          0.0018 Ry au, 
 
        Potential amp.       -0.1523 Ry
        Total length         41.1999 bohr
 

     total cpu time spent up to now is       23.1 secs

     total energy              =    -912.44212779 Ry
     Harris-Foulkes estimate   =    -912.48121174 Ry
     estimated scf accuracy    <       0.35720105 Ry

     iteration #  8     ecut=    80.00 Ry     beta= 0.30
     Davidson diagonalization with overlap
     ethr =  2.63E-04,  avg # of iterations =  5.2
 
     Adding external electric field

     Computed dipole along edir(3) : 
        Dipole                0.3917 Ry au,          0.9957 Debye
        Dipole field          0.0021 Ry au, 
 
        Potential amp.       -0.1714 Ry
        Total length         41.1999 bohr
 

     total cpu time spent up to now is       25.9 secs

     total energy              =    -912.45469024 Ry
     Harris-Foulkes estimate   =    -912.46399527 Ry
     estimated scf accuracy    <       0.22704358 Ry

     iteration #  9     ecut=    80.00 Ry     beta= 0.30
     Davidson diagonalization with overlap
     ethr =  1.67E-04,  avg # of iterations =  4.6

     negative rho (up, down):  4.132E-05 0.000E+00
 
     Adding external electric field

     Computed dipole along edir(3) : 
        Dipole                0.4376 Ry au,          1.1124 Debye
        Dipole field          0.0023 Ry au, 
 
        Potential amp.       -0.1914 Ry
        Total length         41.1999 bohr
 

     total cpu time spent up to now is       28.4 secs

     total energy              =    -912.45331325 Ry
     Harris-Foulkes estimate   =    -912.45802257 Ry
     estimated scf accuracy    <       0.18442444 Ry

     iteration # 10     ecut=    80.00 Ry     beta= 0.30
     Davidson diagonalization with overlap
     ethr =  1.36E-04,  avg # of iterations =  1.6
 
     Adding external electric field

     Computed dipole along edir(3) : 
        Dipole                0.4158 Ry au,          1.0568 Debye
        Dipole field          0.0022 Ry au, 
 
        Potential amp.       -0.1819 Ry
        Total length         41.1999 bohr
 

     total cpu time spent up to now is       30.4 secs

     total energy              =    -912.45303553 Ry
     Harris-Foulkes estimate   =    -912.45444691 Ry
     estimated scf accuracy    <       0.11283174 Ry

     iteration # 11     ecut=    80.00 Ry     beta= 0.30
     Davidson diagonalization with overlap
     ethr =  8.30E-05,  avg # of iterations =  2.1

     negative rho (up, down):  1.029E-03 0.000E+00
 
     Adding external electric field

     Computed dipole along edir(3) : 
        Dipole                0.4693 Ry au,          1.1929 Debye
        Dipole field          0.0025 Ry au, 
 
        Potential amp.       -0.2053 Ry
        Total length         41.1999 bohr
 

     total cpu time spent up to now is       32.3 secs

     total energy              =    -912.45022227 Ry
     Harris-Foulkes estimate   =    -912.45338075 Ry
     estimated scf accuracy    <       0.15451801 Ry

     iteration # 12     ecut=    80.00 Ry     beta= 0.30
     Davidson diagonalization with overlap
     ethr =  8.30E-05,  avg # of iterations =  4.7
 
     Adding external electric field

     Computed dipole along edir(3) : 
        Dipole                0.3678 Ry au,          0.9349 Debye
        Dipole field          0.0020 Ry au, 
 
        Potential amp.       -0.1609 Ry
        Total length         41.1999 bohr
 

     total cpu time spent up to now is       34.9 secs

     total energy              =    -912.44325296 Ry
     Harris-Foulkes estimate   =    -912.45369007 Ry
     estimated scf accuracy    <       0.03460939 Ry

     iteration # 13     ecut=    80.00 Ry     beta= 0.30
     Davidson diagonalization with overlap
     ethr =  2.54E-05,  avg # of iterations =  8.2
 
     Adding external electric field

     Computed dipole along edir(3) : 
        Dipole                0.3871 Ry au,          0.9840 Debye
        Dipole field          0.0021 Ry au, 
 
        Potential amp.       -0.1693 Ry
        Total length         41.1999 bohr
 

     total cpu time spent up to now is       38.2 secs

     total energy              =    -912.44884145 Ry
     Harris-Foulkes estimate   =    -912.45041680 Ry
     estimated scf accuracy    <       0.09147908 Ry

     iteration # 14     ecut=    80.00 Ry     beta= 0.30
     Davidson diagonalization with overlap
     ethr =  2.54E-05,  avg # of iterations =  2.7
 
     Adding external electric field

     Computed dipole along edir(3) : 
        Dipole                0.4094 Ry au,          1.0406 Debye
        Dipole field          0.0022 Ry au, 
 
        Potential amp.       -0.1791 Ry
        Total length         41.1999 bohr
 

     total cpu time spent up to now is       40.2 secs

     total energy              =    -912.44663685 Ry
     Harris-Foulkes estimate   =    -912.44910488 Ry
     estimated scf accuracy    <       0.04715180 Ry

     iteration # 15     ecut=    80.00 Ry     beta= 0.30
     Davidson diagonalization with overlap
     ethr =  2.54E-05,  avg # of iterations =  3.6
 
     Adding external electric field

     Computed dipole along edir(3) : 
        Dipole                0.4071 Ry au,          1.0348 Debye
        Dipole field          0.0022 Ry au, 
 
        Potential amp.       -0.1781 Ry
        Total length         41.1999 bohr
 

     total cpu time spent up to now is       42.5 secs

     total energy              =    -912.44768632 Ry
     Harris-Foulkes estimate   =    -912.44921275 Ry
     estimated scf accuracy    <       0.12824337 Ry

     iteration # 16     ecut=    80.00 Ry     beta= 0.30
     Davidson diagonalization with overlap
     ethr =  2.54E-05,  avg # of iterations =  1.0
 
     Adding external electric field

     Computed dipole along edir(3) : 
        Dipole                0.3876 Ry au,          0.9853 Debye
        Dipole field          0.0021 Ry au, 
 
        Potential amp.       -0.1696 Ry
        Total length         41.1999 bohr
 

     total cpu time spent up to now is       44.1 secs

     total energy              =    -912.44806625 Ry
     Harris-Foulkes estimate   =    -912.44854064 Ry
     estimated scf accuracy    <       0.01097306 Ry

     iteration # 17     ecut=    80.00 Ry     beta= 0.30
     Davidson diagonalization with overlap
     ethr =  8.07E-06,  avg # of iterations =  3.4
 
     Adding external electric field

     Computed dipole along edir(3) : 
        Dipole                0.3970 Ry au,          1.0090 Debye
        Dipole field          0.0021 Ry au, 
 
        Potential amp.       -0.1736 Ry
        Total length         41.1999 bohr
 

     total cpu time spent up to now is       46.1 secs

     total energy              =    -912.44778275 Ry
     Harris-Foulkes estimate   =    -912.44826590 Ry
     estimated scf accuracy    <       0.02570353 Ry

     iteration # 18     ecut=    80.00 Ry     beta= 0.30
     Davidson diagonalization with overlap
     ethr =  8.07E-06,  avg # of iterations =  1.2
 
     Adding external electric field

     Computed dipole along edir(3) : 
        Dipole                0.3889 Ry au,          0.9885 Debye
        Dipole field          0.0021 Ry au, 
 
        Potential amp.       -0.1701 Ry
        Total length         41.1999 bohr
 

     total cpu time spent up to now is       47.8 secs

     total energy              =    -912.44829663 Ry
     Harris-Foulkes estimate   =    -912.44844615 Ry
     estimated scf accuracy    <       0.01046936 Ry

     iteration # 19     ecut=    80.00 Ry     beta= 0.30
     Davidson diagonalization with overlap
     ethr =  7.70E-06,  avg # of iterations =  1.0
 
     Adding external electric field

     Computed dipole along edir(3) : 
        Dipole                0.3768 Ry au,          0.9578 Debye
        Dipole field          0.0020 Ry au, 
 
        Potential amp.       -0.1648 Ry
        Total length         41.1999 bohr
 

     total cpu time spent up to now is       49.3 secs

     total energy              =    -912.44812474 Ry
     Harris-Foulkes estimate   =    -912.44835098 Ry
     estimated scf accuracy    <       0.00963782 Ry

     iteration # 20     ecut=    80.00 Ry     beta= 0.30
     Davidson diagonalization with overlap
     ethr =  7.09E-06,  avg # of iterations =  1.0
 
     Adding external electric field

     Computed dipole along edir(3) : 
        Dipole                0.3800 Ry au,          0.9659 Debye
        Dipole field          0.0020 Ry au, 
 
        Potential amp.       -0.1662 Ry
        Total length         41.1999 bohr
 

     total cpu time spent up to now is       50.9 secs

     total energy              =    -912.44811972 Ry
     Harris-Foulkes estimate   =    -912.44819634 Ry
     estimated scf accuracy    <       0.00482000 Ry

     iteration # 21     ecut=    80.00 Ry     beta= 0.30
     Davidson diagonalization with overlap
     ethr =  3.54E-06,  avg # of iterations =  1.6
 
     Adding external electric field

     Computed dipole along edir(3) : 
        Dipole                0.3766 Ry au,          0.9573 Debye
        Dipole field          0.0020 Ry au, 
 
        Potential amp.       -0.1647 Ry
        Total length         41.1999 bohr
 

     total cpu time spent up to now is       52.8 secs

     total energy              =    -912.44818757 Ry
     Harris-Foulkes estimate   =    -912.44823403 Ry
     estimated scf accuracy    <       0.00722651 Ry

     iteration # 22     ecut=    80.00 Ry     beta= 0.30
     Davidson diagonalization with overlap
     ethr =  3.54E-06,  avg # of iterations =  1.0
 
     Adding external electric field

     Computed dipole along edir(3) : 
        Dipole                0.3714 Ry au,          0.9440 Debye
        Dipole field          0.0020 Ry au, 
 
        Potential amp.       -0.1625 Ry
        Total length         41.1999 bohr
 

     total cpu time spent up to now is       54.3 secs

     total energy              =    -912.44814334 Ry
     Harris-Foulkes estimate   =    -912.44821192 Ry
     estimated scf accuracy    <       0.00514719 Ry

     iteration # 23     ecut=    80.00 Ry     beta= 0.30
     Davidson diagonalization with overlap
     ethr =  3.54E-06,  avg # of iterations =  1.0
 
     Adding external electric field

     Computed dipole along edir(3) : 
        Dipole                0.3686 Ry au,          0.9370 Debye
        Dipole field          0.0020 Ry au, 
 
        Potential amp.       -0.1613 Ry
        Total length         41.1999 bohr
 

     total cpu time spent up to now is       55.9 secs

     total energy              =    -912.44815099 Ry
     Harris-Foulkes estimate   =    -912.44816892 Ry
     estimated scf accuracy    <       0.00063664 Ry

     iteration # 24     ecut=    80.00 Ry     beta= 0.30
     Davidson diagonalization with overlap
     ethr =  4.68E-07,  avg # of iterations =  3.3
 
     Adding external electric field

     Computed dipole along edir(3) : 
        Dipole                0.3713 Ry au,          0.9438 Debye
        Dipole field          0.0020 Ry au, 
 
        Potential amp.       -0.1624 Ry
        Total length         41.1999 bohr
 

     total cpu time spent up to now is       58.2 secs

     total energy              =    -912.44815026 Ry
     Harris-Foulkes estimate   =    -912.44814819 Ry
     estimated scf accuracy    <       0.00012831 Ry

     iteration # 25     ecut=    80.00 Ry     beta= 0.30
     Davidson diagonalization with overlap
     ethr =  9.43E-08,  avg # of iterations =  1.8
 
     Adding external electric field

     Computed dipole along edir(3) : 
        Dipole                0.3699 Ry au,          0.9402 Debye
        Dipole field          0.0020 Ry au, 
 
        Potential amp.       -0.1618 Ry
        Total length         41.1999 bohr
 

     total cpu time spent up to now is       60.1 secs

     total energy              =    -912.44815704 Ry
     Harris-Foulkes estimate   =    -912.44816695 Ry
     estimated scf accuracy    <       0.00032755 Ry

     iteration # 26     ecut=    80.00 Ry     beta= 0.30
     Davidson diagonalization with overlap
     ethr =  9.43E-08,  avg # of iterations =  1.0
 
     Adding external electric field

     Computed dipole along edir(3) : 
        Dipole                0.3687 Ry au,          0.9372 Debye
        Dipole field          0.0020 Ry au, 
 
        Potential amp.       -0.1613 Ry
        Total length         41.1999 bohr
 

     total cpu time spent up to now is       61.6 secs

     total energy              =    -912.44815727 Ry
     Harris-Foulkes estimate   =    -912.44816318 Ry
     estimated scf accuracy    <       0.00004102 Ry

     iteration # 27     ecut=    80.00 Ry     beta= 0.30
     Davidson diagonalization with overlap
     ethr =  3.02E-08,  avg # of iterations =  2.2
 
     Adding external electric field

     Computed dipole along edir(3) : 
        Dipole                0.3691 Ry au,          0.9382 Debye
        Dipole field          0.0020 Ry au, 
 
        Potential amp.       -0.1615 Ry
        Total length         41.1999 bohr
 

     total cpu time spent up to now is       63.7 secs

     total energy              =    -912.44815870 Ry
     Harris-Foulkes estimate   =    -912.44815767 Ry
     estimated scf accuracy    <       0.00004043 Ry

     iteration # 28     ecut=    80.00 Ry     beta= 0.30
     Davidson diagonalization with overlap
     ethr =  2.97E-08,  avg # of iterations =  1.0
 
     Adding external electric field

     Computed dipole along edir(3) : 
        Dipole                0.3690 Ry au,          0.9378 Debye
        Dipole field          0.0020 Ry au, 
 
        Potential amp.       -0.1614 Ry
        Total length         41.1999 bohr
 

     total cpu time spent up to now is       65.3 secs

     total energy              =    -912.44815895 Ry
     Harris-Foulkes estimate   =    -912.44815955 Ry
     estimated scf accuracy    <       0.00000433 Ry

     iteration # 29     ecut=    80.00 Ry     beta= 0.30
     Davidson diagonalization with overlap
     ethr =  3.18E-09,  avg # of iterations =  3.0
 
     Adding external electric field

     Computed dipole along edir(3) : 
        Dipole                0.3689 Ry au,          0.9376 Debye
        Dipole field          0.0020 Ry au, 
 
        Potential amp.       -0.1614 Ry
        Total length         41.1999 bohr
 

     total cpu time spent up to now is       67.4 secs

     total energy              =    -912.44815928 Ry
     Harris-Foulkes estimate   =    -912.44815956 Ry
     estimated scf accuracy    <       0.00000966 Ry

     iteration # 30     ecut=    80.00 Ry     beta= 0.30
     Davidson diagonalization with overlap
     ethr =  3.18E-09,  avg # of iterations =  1.0
 
     Adding external electric field

     Computed dipole along edir(3) : 
        Dipole                0.3693 Ry au,          0.9386 Debye
        Dipole field          0.0020 Ry au, 
 
        Potential amp.       -0.1615 Ry
        Total length         41.1999 bohr
 

     total cpu time spent up to now is       69.0 secs

     total energy              =    -912.44815910 Ry
     Harris-Foulkes estimate   =    -912.44815781 Ry
     estimated scf accuracy    <       0.00000647 Ry

     iteration # 31     ecut=    80.00 Ry     beta= 0.30
     Davidson diagonalization with overlap
     ethr =  3.18E-09,  avg # of iterations =  1.0
 
     Adding external electric field

     Computed dipole along edir(3) : 
        Dipole                0.3692 Ry au,          0.9383 Debye
        Dipole field          0.0020 Ry au, 
 
        Potential amp.       -0.1615 Ry
        Total length         41.1999 bohr
 

     total cpu time spent up to now is       70.5 secs

     total energy              =    -912.44815923 Ry
     Harris-Foulkes estimate   =    -912.44815973 Ry
     estimated scf accuracy    <       0.00000172 Ry

     iteration # 32     ecut=    80.00 Ry     beta= 0.30
     Davidson diagonalization with overlap
     ethr =  1.26E-09,  avg # of iterations =  1.0
 
     Adding external electric field

     Computed dipole along edir(3) : 
        Dipole                0.3690 Ry au,          0.9380 Debye
        Dipole field          0.0020 Ry au, 
 
        Potential amp.       -0.1614 Ry
        Total length         41.1999 bohr
 

     total cpu time spent up to now is       72.2 secs

     End of self-consistent calculation

          k = 0.0000 0.0000 0.0000 ( 28531 PWs)   bands (ev):

   -51.6622 -50.7799 -49.7359 -28.0906 -28.0245 -28.0245 -27.2103 -27.1266
   -27.1266 -26.1238 -26.1079 -26.1079 -21.9154 -19.7683 -18.8617 -18.7567
   -12.5345 -11.7074 -11.6002 -11.4089 -10.9442 -10.5837 -10.5289  -9.9568
    -9.6995  -8.1909  -7.0548  -6.8498  -6.8498  -4.9047  -4.9047  -4.7903
    -4.1007  -3.9090  -3.9090  -3.7589  -3.7589  -3.7236   1.3447   1.7936
     1.7936   2.1206   2.6605   2.6615   2.6615   2.7794   2.8872   2.8872
     3.1924   3.2799   3.2799   3.7993   3.7993   3.8612   3.9522   3.9522
     4.2833   4.3139   4.3139   4.5628   4.7686   5.0468   5.0468   5.5657
     5.5657   6.1559   6.3664   6.5282   6.5872   6.5872   7.2303   7.2303
     7.3415   7.9933   8.3201   8.3435   8.3435   8.6856   9.2272   9.2943
     9.5223   9.5223

          k = 0.0000 0.1250 0.0000 ( 28589 PWs)   bands (ev):

   -51.6621 -50.7797 -49.7358 -28.0902 -28.0330 -28.0242 -27.2099 -27.1348
   -27.1263 -26.1233 -26.1163 -26.1076 -21.9043 -19.7533 -18.8491 -18.7428
   -12.4878 -11.7015 -11.6250 -11.3873 -10.9503 -10.5760 -10.4925  -9.9714
    -9.6895  -8.2392  -7.0686  -6.8296  -6.8281  -4.8916  -4.8767  -4.8126
    -4.1086  -3.8821  -3.8758  -3.8096  -3.7362  -3.6939   1.2851   1.6433
     1.7968   1.9442   2.2194   2.5239   2.7220   2.7252   2.8331   2.9145
     2.9516   3.1490   3.5054   3.5589   3.6523   3.7724   3.8096   3.8800
     4.0538   4.1655   4.4248   4.5996   4.7409   4.8850   4.9482   5.3473
     5.4557   6.0789   6.4645   6.4816   6.6577   6.6707   7.2378   7.2449
     7.6503   8.3082   8.3532   8.3846   8.6240   8.9616   9.3803   9.5103
     9.5317   9.5326

          k = 0.0000 0.2500 0.0000 ( 28633 PWs)   bands (ev):

   -51.6617 -50.7793 -49.7354 -28.0890 -28.0535 -28.0234 -27.2088 -27.1545
   -27.1255 -26.1365 -26.1221 -26.1068 -21.8772 -19.7168 -18.8187 -18.7086
   -12.4033 -11.7097 -11.6404 -11.3711 -10.9312 -10.5521 -10.4251  -9.9796
    -9.6518  -8.3499  -7.0815  -6.7994  -6.7746  -4.8681  -4.8558  -4.8073
    -4.1089  -3.8784  -3.8347  -3.8157  -3.6798  -3.6506   1.0439   1.2000
     1.5332   1.8005   2.0091   2.2138   2.2406   2.4322   2.5525   2.6806
     2.9829   3.0425   3.1185   3.2136   3.4510   3.5271   3.5826   3.7457
     3.9906   4.0595   4.2683   4.5689   4.5731   4.6734   4.9221   4.9433
     5.2568   5.9377   6.1928   6.4310   7.0357   7.2523   7.3371   7.4984
     8.2730   8.3903   8.6433   8.9718   9.2321   9.2513   9.5575   9.6869
     9.7772   9.8763

          k = 0.0000 0.3750 0.0000 ( 28650 PWs)   bands (ev):

   -51.6613 -50.7789 -49.7350 -28.0878 -28.0739 -28.0226 -27.2077 -27.1741
   -27.1248 -26.1565 -26.1210 -26.1060 -21.8497 -19.6795 -18.7882 -18.6733
   -12.3795 -11.7174 -11.6007 -11.3973 -10.8970 -10.4904 -10.3988  -9.9559
    -9.5854  -8.4515  -7.0765  -6.7846  -6.7195  -4.9150  -4.8247  -4.7349
    -4.1033  -3.9182  -3.8295  -3.7475  -3.6204  -3.5989   0.5364   0.8617
     1.3540   1.6298   1.7611   1.9202   1.9835   2.0708   2.2153   2.4959
     2.6828   2.8542   2.8987   3.0372   3.2817   3.2912   3.4229   3.6790
     4.0004   4.0179   4.2563   4.3012   4.4097   4.5547   4.6516   4.9206
     5.1303   5.9495   6.0198   6.3346   7.3271   7.6214   7.8722   7.9169
     8.4050   8.8466   8.9263   9.0548   9.4755   9.5810   9.8125  10.0317
    10.0529  10.1276

          k = 0.0000-0.5000 0.0000 ( 28646 PWs)   bands (ev):

   -51.6611 -50.7788 -49.7348 -28.0873 -28.0823 -28.0223 -27.2073 -27.1822
   -27.1245 -26.1647 -26.1206 -26.1057 -21.8382 -19.6639 -18.7756 -18.6583
   -12.3892 -11.7242 -11.5583 -11.4173 -10.8922 -10.4254 -10.4172  -9.9442
    -9.5462  -8.4908  -7.0704  -6.7819  -6.6962  -4.9345  -4.8102  -4.7039
    -4.1041  -3.9238  -3.8344  -3.7188  -3.5948  -3.5759   0.3085   0.7230
     1.2783   1.4504   1.6947   1.8161   1.9676   1.9834   2.0411   2.2999
     2.6493   2.7204   2.7841   3.0452   3.1584   3.1943   3.5441   3.5645
     4.0159   4.0616   4.1669   4.2240   4.3323   4.3998   4.6566   4.9221
     5.0874   5.8558   6.1359   6.2231   7.3492   8.0922   8.0946   8.2898
     8.4182   8.4235   9.0669   9.2294   9.4279   9.5933  10.0321  10.1384
    10.2313  10.3476

          k = 0.1250 0.0000 0.0000 ( 28589 PWs)   bands (ev):

   -51.6621 -50.7797 -49.7358 -28.0902 -28.0330 -28.0242 -27.2099 -27.1348
   -27.1263 -26.1233 -26.1163 -26.1076 -21.9043 -19.7533 -18.8491 -18.7428
   -12.4878 -11.7015 -11.6250 -11.3873 -10.9503 -10.5760 -10.4925  -9.9714
    -9.6895  -8.2392  -7.0686  -6.8296  -6.8281  -4.8916  -4.8767  -4.8126
    -4.1086  -3.8821  -3.8758  -3.8096  -3.7362  -3.6939   1.2851   1.6433
     1.7968   1.9442   2.2194   2.5239   2.7220   2.7252   2.8331   2.9145
     2.9516   3.1490   3.5054   3.5589   3.6522   3.7724   3.8096   3.8800
     4.0538   4.1655   4.4248   4.5996   4.7409   4.8850   4.9482   5.3473
     5.4557   6.0789   6.4645   6.4816   6.6577   6.6707   7.2378   7.2449
     7.6503   8.3082   8.3532   8.3846   8.6240   8.9616   9.3803   9.5105
     9.5317   9.5327

          k = 0.1250 0.1250 0.0000 ( 28629 PWs)   bands (ev):

   -51.6619 -50.7796 -49.7356 -28.0897 -28.0329 -28.0325 -27.2095 -27.1347
   -27.1343 -26.1229 -26.1161 -26.1158 -21.8935 -19.7389 -18.8370 -18.7293
   -12.4374 -11.6903 -11.6468 -11.3635 -10.9443 -10.5652 -10.4590  -9.9755
    -9.6822  -8.2736  -7.0759  -6.9349  -6.7238  -4.9836  -4.8384  -4.7787
    -4.1132  -3.9797  -3.8502  -3.8433  -3.7412  -3.5954   1.2289   1.5526
     1.7323   1.7864   2.1813   2.2583   2.5551   2.6882   2.7506   2.8143
     3.0036   3.2406   3.2650   3.4774   3.6435   3.6597   3.7273   3.7668
     3.9795   4.1313   4.2832   4.5986   4.6693   4.7663   5.0225   5.0967
     5.5228   5.9249   6.3466   6.5271   6.7709   6.8980   7.2559   7.3246
     7.8699   8.3956   8.4117   8.5813   8.8393   9.3317   9.4796   9.5317
     9.5712   9.6719

          k = 0.1250 0.2500 0.0000 ( 28628 PWs)   bands (ev):

   -51.6615 -50.7792 -49.7352 -28.0885 -28.0531 -28.0318 -27.2084 -27.1541
   -27.1337 -26.1361 -26.1218 -26.1151 -21.8672 -19.7037 -18.8077 -18.6961
   -12.3418 -11.6934 -11.6479 -11.3405 -10.9020 -10.5386 -10.3928  -9.9610
    -9.6508  -8.3539  -7.0911  -6.9759  -6.6860  -5.0192  -4.8981  -4.7315
    -4.1266  -4.0205  -3.9091  -3.8796  -3.6797  -3.5456   1.0023   1.2031
     1.4957   1.6416   1.9531   2.1455   2.2705   2.3050   2.4516   2.7319
     2.7905   3.0333   3.1183   3.2325   3.4173   3.5068   3.5489   3.6851
     3.7910   3.9983   4.2683   4.3636   4.5106   4.6650   4.9119   5.1343
     5.3610   5.7796   6.2434   6.4706   7.1431   7.3516   7.4375   7.5715
     8.3772   8.4754   8.6772   9.1601   9.3500   9.5802   9.6111   9.7390
     9.9279   9.9934

          k = 0.1250 0.3750 0.0000 ( 28621 PWs)   bands (ev):

   -51.6611 -50.7788 -49.7348 -28.0874 -28.0734 -28.0309 -27.2073 -27.1737
   -27.1328 -26.1560 -26.1207 -26.1142 -21.8406 -19.6679 -18.7784 -18.6619
   -12.3047 -11.6923 -11.6000 -11.3541 -10.8539 -10.4747 -10.3632  -9.9211
    -9.5891  -8.4294  -7.0934  -6.9430  -6.7333  -4.9754  -4.9562  -4.7649
    -4.1517  -3.9893  -3.9482  -3.8212  -3.7063  -3.5815   0.5211   0.9913
     1.3506   1.5586   1.6223   1.7971   2.0126   2.1774   2.2217   2.4967
     2.6359   2.7173   3.0122   3.0812   3.1149   3.3784   3.4651   3.6158
     3.7022   3.9813   4.0504   4.3084   4.4029   4.5765   4.8153   5.1349
     5.2489   5.8345   6.1120   6.3466   7.4498   7.7143   7.9299   7.9707
     8.5041   8.9091   9.0144   9.1133   9.6570   9.8251   9.8630  10.0851
    10.1679  10.4681

          k = 0.1250-0.5000 0.0000 ( 28608 PWs)   bands (ev):

   -51.6610 -50.7786 -49.7347 -28.0869 -28.0818 -28.0306 -27.2069 -27.1817
   -27.1325 -26.1642 -26.1202 -26.1139 -21.8295 -19.6529 -18.7662 -18.6475
   -12.3089 -11.6932 -11.5596 -11.3654 -10.8451 -10.4207 -10.3670  -9.9050
    -9.5505  -8.4590  -7.0916  -6.8756  -6.8089  -4.9806  -4.9062  -4.8287
    -4.1693  -3.9582  -3.9359  -3.7883  -3.6969  -3.6655   0.2963   0.9197
     1.2788   1.4343   1.5974   1.6552   1.8791   2.1191   2.1807   2.2897
     2.6303   2.6361   2.9055   2.9896   3.0809   3.3581   3.4777   3.5642
     3.6797   3.8767   4.0094   4.3279   4.3542   4.5292   4.7698   5.1226
     5.2495   5.8325   6.1104   6.2501   7.4794   8.1059   8.1594   8.3648
     8.5208   8.5343   9.1202   9.2548   9.6789   9.8298  10.0726  10.2652
    10.4010  10.4923

          k = 0.1250-0.3750 0.0000 ( 28621 PWs)   bands (ev):

   -51.6611 -50.7788 -49.7348 -28.0874 -28.0734 -28.0309 -27.2073 -27.1737
   -27.1328 -26.1560 -26.1207 -26.1142 -21.8406 -19.6679 -18.7784 -18.6619
   -12.3047 -11.6923 -11.6000 -11.3541 -10.8539 -10.4747 -10.3632  -9.9211
    -9.5891  -8.4294  -7.0934  -6.9430  -6.7333  -4.9754  -4.9562  -4.7649
    -4.1517  -3.9893  -3.9482  -3.8212  -3.7063  -3.5815   0.5211   0.9913
     1.3506   1.5586   1.6223   1.7971   2.0126   2.1774   2.2217   2.4967
     2.6359   2.7173   3.0122   3.0812   3.1149   3.3784   3.4651   3.6158
     3.7022   3.9813   4.0504   4.3084   4.4029   4.5765   4.8153   5.1349
     5.2489   5.8345   6.1120   6.3466   7.4498   7.7143   7.9299   7.9707
     8.5041   8.9091   9.0144   9.1133   9.6570   9.8251   9.8630  10.0851
    10.1679  10.4681

          k = 0.1250-0.2500 0.0000 ( 28628 PWs)   bands (ev):

   -51.6615 -50.7792 -49.7352 -28.0885 -28.0531 -28.0318 -27.2084 -27.1541
   -27.1337 -26.1361 -26.1218 -26.1151 -21.8672 -19.7037 -18.8077 -18.6961
   -12.3418 -11.6934 -11.6479 -11.3405 -10.9020 -10.5386 -10.3928  -9.9610
    -9.6508  -8.3539  -7.0911  -6.9759  -6.6860  -5.0192  -4.8981  -4.7314
    -4.1266  -4.0205  -3.9091  -3.8796  -3.6797  -3.5456   1.0023   1.2031
     1.4957   1.6416   1.9531   2.1455   2.2705   2.3050   2.4516   2.7319
     2.7905   3.0333   3.1183   3.2325   3.4173   3.5068   3.5489   3.6851
     3.7910   3.9983   4.2683   4.3636   4.5106   4.6650   4.9119   5.1343
     5.3610   5.7796   6.2434   6.4706   7.1431   7.3516   7.4375   7.5715
     8.3772   8.4754   8.6772   9.1601   9.3500   9.5801   9.6110   9.7390
     9.9278   9.9932

          k = 0.1250-0.1250 0.0000 ( 28629 PWs)   bands (ev):

   -51.6619 -50.7796 -49.7356 -28.0897 -28.0329 -28.0325 -27.2095 -27.1347
   -27.1343 -26.1229 -26.1161 -26.1158 -21.8935 -19.7389 -18.8370 -18.7293
   -12.4374 -11.6903 -11.6468 -11.3635 -10.9443 -10.5652 -10.4590  -9.9755
    -9.6822  -8.2736  -7.0759  -6.9349  -6.7238  -4.9836  -4.8384  -4.7787
    -4.1132  -3.9797  -3.8502  -3.8433  -3.7412  -3.5954   1.2289   1.5526
     1.7323   1.7864   2.1813   2.2583   2.5551   2.6882   2.7506   2.8143
     3.0036   3.2406   3.2650   3.4774   3.6435   3.6597   3.7273   3.7668
     3.9795   4.1313   4.2832   4.5986   4.6693   4.7663   5.0225   5.0967
     5.5228   5.9249   6.3466   6.5271   6.7709   6.8980   7.2559   7.3246
     7.8699   8.3956   8.4117   8.5813   8.8393   9.3317   9.4796   9.5317
     9.5712   9.6719

          k = 0.2500 0.0000 0.0000 ( 28633 PWs)   bands (ev):

   -51.6617 -50.7793 -49.7354 -28.0890 -28.0535 -28.0234 -27.2088 -27.1545
   -27.1255 -26.1365 -26.1221 -26.1068 -21.8772 -19.7168 -18.8187 -18.7086
   -12.4033 -11.7097 -11.6404 -11.3711 -10.9312 -10.5521 -10.4251  -9.9796
    -9.6518  -8.3499  -7.0815  -6.7994  -6.7746  -4.8681  -4.8558  -4.8073
    -4.1089  -3.8784  -3.8347  -3.8157  -3.6798  -3.6506   1.0439   1.2000
     1.5332   1.8005   2.0091   2.2138   2.2406   2.4322   2.5525   2.6806
     2.9829   3.0425   3.1185   3.2136   3.4510   3.5271   3.5826   3.7457
     3.9906   4.0595   4.2683   4.5689   4.5731   4.6734   4.9221   4.9433
     5.2568   5.9377   6.1928   6.4310   7.0357   7.2523   7.3371   7.4983
     8.2730   8.3903   8.6433   8.9718   9.2321   9.2513   9.5575   9.6869
     9.7772   9.8763

          k = 0.2500 0.1250 0.0000 ( 28628 PWs)   bands (ev):

   -51.6615 -50.7792 -49.7352 -28.0885 -28.0531 -28.0318 -27.2084 -27.1541
   -27.1337 -26.1361 -26.1218 -26.1151 -21.8672 -19.7037 -18.8077 -18.6961
   -12.3418 -11.6934 -11.6479 -11.3405 -10.9020 -10.5386 -10.3928  -9.9610
    -9.6508  -8.3539  -7.0911  -6.9759  -6.6860  -5.0192  -4.8981  -4.7315
    -4.1266  -4.0205  -3.9091  -3.8796  -3.6797  -3.5456   1.0023   1.2031
     1.4957   1.6416   1.9531   2.1455   2.2705   2.3050   2.4516   2.7319
     2.7905   3.0333   3.1183   3.2325   3.4173   3.5068   3.5489   3.6851
     3.7910   3.9983   4.2683   4.3637   4.5106   4.6650   4.9119   5.1343
     5.3610   5.7796   6.2434   6.4706   7.1431   7.3516   7.4375   7.5715
     8.3772   8.4753   8.6772   9.1601   9.3500   9.5801   9.6110   9.7390
     9.9278   9.9932

          k = 0.2500 0.2500 0.0000 ( 28583 PWs)   bands (ev):

   -51.6611 -50.7788 -49.7348 -28.0875 -28.0525 -28.0517 -27.2074 -27.1535
   -27.1528 -26.1355 -26.1347 -26.1207 -21.8430 -19.6719 -18.7812 -18.6654
   -12.2078 -11.6621 -11.6474 -11.2871 -10.8139 -10.5187 -10.3148  -9.8964
    -9.6386  -8.3644  -7.1359  -7.1145  -6.7341  -5.1699  -4.9785  -4.7813
    -4.1921  -4.1892  -4.0009  -3.9687  -3.7113  -3.5634   0.8503   1.2054
     1.3244   1.4272   1.8099   1.9048   2.0094   2.3049   2.3519   2.3927
     2.7951   2.9002   2.9697   3.0697   3.3072   3.4126   3.4246   3.6704
     3.7148   3.8711   3.8768   4.3821   4.4014   4.8014   4.9556   5.3312
     5.5875   5.5909   6.2354   6.5729   7.4764   7.6726   7.6956   7.7599
     8.6944   8.7551   8.7709   9.4669   9.6575   9.8256   9.8331   9.8663
    10.3041  10.4672

          k = 0.2500 0.3750 0.0000 ( 28586 PWs)   bands (ev):

   -51.6607 -50.7784 -49.7344 -28.0865 -28.0722 -28.0511 -27.2064 -27.1726
   -27.1522 -26.1548 -26.1341 -26.1197 -21.8185 -19.6397 -18.7546 -18.6342
   -12.1183 -11.6325 -11.6041 -11.2584 -10.7302 -10.4716 -10.2581  -9.8177
    -9.5958  -8.3759  -7.1802  -7.1364  -6.8934  -5.2061  -5.0598  -4.9389
    -4.2727  -4.2445  -4.0304  -3.9983  -3.8409  -3.6982   0.4758   1.1674
     1.2393   1.3732   1.4560   1.6012   1.7892   2.2654   2.3332   2.3639
     2.5411   2.6367   2.7692   3.0055   3.2211   3.3655   3.4390   3.5535
     3.6310   3.7601   3.8252   4.3034   4.4508   4.9088   5.0026   5.3458
     5.6854   5.7626   6.1972   6.5125   7.8065   7.9842   8.0988   8.1164
     8.8193   9.0857   9.1163   9.2642   9.9260  10.0392  10.0567  10.1780
    10.4557  10.7247

          k = 0.2500-0.5000 0.0000 ( 28558 PWs)   bands (ev):

   -51.6606 -50.7782 -49.7343 -28.0860 -28.0805 -28.0506 -27.2060 -27.1806
   -27.1518 -26.1630 -26.1337 -26.1193 -21.8083 -19.6261 -18.7435 -18.6210
   -12.1008 -11.6214 -11.5658 -11.2510 -10.7107 -10.4307 -10.2407  -9.7920
    -9.5602  -8.3809  -7.1608  -7.0986  -7.0422  -5.1283  -5.1072  -5.0812
    -4.3134  -4.1738  -4.1408  -3.8985  -3.8741  -3.8720   0.2590   1.2339
     1.2467   1.2720   1.3159   1.4375   1.7007   2.2569   2.3295   2.3362
     2.4173   2.5477   2.6874   3.0939   3.2720   3.3221   3.3414   3.5150
     3.5356   3.7916   3.8072   4.2914   4.4503   4.9434   5.0106   5.3365
     5.7503   5.8605   6.2173   6.3817   7.8482   8.2360   8.2763   8.5629
     8.7447   8.8745   9.2814   9.3200   9.9621  10.2193  10.2446  10.3490
    10.3817  10.8324

          k = 0.2500-0.3750 0.0000 ( 28586 PWs)   bands (ev):

   -51.6607 -50.7784 -49.7344 -28.0865 -28.0722 -28.0511 -27.2064 -27.1726
   -27.1522 -26.1548 -26.1341 -26.1197 -21.8185 -19.6397 -18.7546 -18.6342
   -12.1183 -11.6325 -11.6041 -11.2584 -10.7302 -10.4716 -10.2581  -9.8177
    -9.5958  -8.3759  -7.1802  -7.1364  -6.8934  -5.2061  -5.0598  -4.9389
    -4.2727  -4.2445  -4.0304  -3.9983  -3.8409  -3.6982   0.4758   1.1674
     1.2393   1.3732   1.4560   1.6012   1.7892   2.2654   2.3332   2.3639
     2.5411   2.6367   2.7692   3.0055   3.2211   3.3655   3.4390   3.5535
     3.6310   3.7601   3.8252   4.3034   4.4508   4.9088   5.0026   5.3458
     5.6854   5.7626   6.1972   6.5125   7.8065   7.9842   8.0988   8.1164
     8.8193   9.0857   9.1163   9.2642   9.9260  10.0392  10.0567  10.1780
    10.4556  10.7245

          k = 0.2500-0.2500 0.0000 ( 28583 PWs)   bands (ev):

   -51.6611 -50.7788 -49.7348 -28.0875 -28.0525 -28.0517 -27.2074 -27.1535
   -27.1528 -26.1355 -26.1347 -26.1207 -21.8430 -19.6719 -18.7812 -18.6654
   -12.2078 -11.6621 -11.6474 -11.2871 -10.8139 -10.5187 -10.3148  -9.8964
    -9.6386  -8.3644  -7.1359  -7.1145  -6.7341  -5.1699  -4.9785  -4.7813
    -4.1921  -4.1892  -4.0009  -3.9687  -3.7113  -3.5634   0.8503   1.2054
     1.3244   1.4272   1.8099   1.9048   2.0094   2.3049   2.3519   2.3927
     2.7951   2.9002   2.9697   3.0697   3.3072   3.4126   3.4246   3.6704
     3.7148   3.8711   3.8768   4.3821   4.4014   4.8014   4.9556   5.3312
     5.5875   5.5909   6.2354   6.5729   7.4764   7.6726   7.6956   7.7599
     8.6944   8.7551   8.7709   9.4669   9.6575   9.8256   9.8331   9.8663
    10.3041  10.4670

          k = 0.2500-0.1250 0.0000 ( 28628 PWs)   bands (ev):

   -51.6615 -50.7792 -49.7352 -28.0885 -28.0531 -28.0318 -27.2084 -27.1541
   -27.1337 -26.1361 -26.1218 -26.1151 -21.8672 -19.7037 -18.8077 -18.6961
   -12.3418 -11.6934 -11.6479 -11.3405 -10.9020 -10.5386 -10.3928  -9.9610
    -9.6508  -8.3539  -7.0911  -6.9759  -6.6860  -5.0192  -4.8981  -4.7315
    -4.1266  -4.0205  -3.9091  -3.8796  -3.6797  -3.5456   1.0023   1.2031
     1.4957   1.6416   1.9531   2.1455   2.2705   2.3050   2.4516   2.7319
     2.7905   3.0333   3.1183   3.2325   3.4173   3.5068   3.5489   3.6851
     3.7910   3.9983   4.2683   4.3637   4.5106   4.6650   4.9119   5.1343
     5.3610   5.7796   6.2434   6.4706   7.1431   7.3516   7.4375   7.5715
     8.3772   8.4753   8.6772   9.1601   9.3500   9.5801   9.6110   9.7390
     9.9278   9.9931

          k = 0.3750 0.0000 0.0000 ( 28650 PWs)   bands (ev):

   -51.6613 -50.7789 -49.7350 -28.0878 -28.0739 -28.0226 -27.2077 -27.1741
   -27.1248 -26.1565 -26.1210 -26.1060 -21.8497 -19.6795 -18.7882 -18.6733
   -12.3795 -11.7174 -11.6007 -11.3973 -10.8970 -10.4904 -10.3988  -9.9559
    -9.5854  -8.4515  -7.0765  -6.7846  -6.7195  -4.9150  -4.8247  -4.7349
    -4.1033  -3.9182  -3.8295  -3.7475  -3.6204  -3.5989   0.5364   0.8617
     1.3540   1.6298   1.7611   1.9202   1.9835   2.0708   2.2153   2.4959
     2.6828   2.8542   2.8987   3.0372   3.2817   3.2912   3.4229   3.6790
     4.0004   4.0179   4.2563   4.3012   4.4097   4.5547   4.6516   4.9206
     5.1303   5.9495   6.0198   6.3346   7.3272   7.6214   7.8722   7.9169
     8.4050   8.8466   8.9263   9.0548   9.4755   9.5810   9.8125  10.0317
    10.0529  10.1276

          k = 0.3750 0.1250 0.0000 ( 28621 PWs)   bands (ev):

   -51.6611 -50.7788 -49.7348 -28.0874 -28.0734 -28.0309 -27.2073 -27.1737
   -27.1328 -26.1560 -26.1207 -26.1142 -21.8406 -19.6679 -18.7784 -18.6619
   -12.3047 -11.6923 -11.6000 -11.3541 -10.8539 -10.4747 -10.3632  -9.9211
    -9.5891  -8.4294  -7.0934  -6.9430  -6.7333  -4.9754  -4.9562  -4.7649
    -4.1517  -3.9893  -3.9482  -3.8212  -3.7063  -3.5815   0.5211   0.9913
     1.3506   1.5586   1.6223   1.7971   2.0126   2.1774   2.2217   2.4967
     2.6359   2.7173   3.0122   3.0812   3.1149   3.3784   3.4651   3.6158
     3.7022   3.9813   4.0504   4.3084   4.4029   4.5765   4.8153   5.1349
     5.2489   5.8345   6.1120   6.3466   7.4498   7.7143   7.9299   7.9707
     8.5041   8.9091   9.0144   9.1133   9.6570   9.8251   9.8630  10.0851
    10.1679  10.4681

          k = 0.3750 0.2500 0.0000 ( 28586 PWs)   bands (ev):

   -51.6607 -50.7784 -49.7344 -28.0865 -28.0722 -28.0511 -27.2064 -27.1726
   -27.1522 -26.1548 -26.1341 -26.1197 -21.8185 -19.6397 -18.7546 -18.6342
   -12.1183 -11.6325 -11.6041 -11.2584 -10.7302 -10.4716 -10.2581  -9.8177
    -9.5958  -8.3759  -7.1802  -7.1364  -6.8934  -5.2061  -5.0598  -4.9389
    -4.2727  -4.2445  -4.0304  -3.9983  -3.8409  -3.6982   0.4758   1.1674
     1.2393   1.3732   1.4560   1.6012   1.7892   2.2655   2.3332   2.3639
     2.5411   2.6367   2.7692   3.0055   3.2211   3.3655   3.4390   3.5535
     3.6310   3.7601   3.8252   4.3034   4.4508   4.9088   5.0026   5.3458
     5.6854   5.7626   6.1972   6.5125   7.8065   7.9842   8.0988   8.1164
     8.8193   9.0857   9.1163   9.2642   9.9260  10.0392  10.0567  10.1780
    10.4556  10.7244

          k = 0.3750 0.3750 0.0000 ( 28573 PWs)   bands (ev):

   -51.6603 -50.7780 -49.7340 -28.0855 -28.0712 -28.0709 -27.2055 -27.1716
   -27.1713 -26.1539 -26.1535 -26.1188 -21.7962 -19.6110 -18.7305 -18.6060
   -11.9275 -11.6024 -11.5770 -11.1811 -10.5834 -10.4693 -10.1728  -9.6878
    -9.5920  -8.3231  -7.3299  -7.2052  -7.0952  -5.3493  -5.1761  -5.1552
    -4.4121  -4.3745  -4.2264  -4.1096  -3.9133  -3.8909   0.3151   0.7928
     1.0803   1.2971   1.4578   1.5456   1.7443   1.8492   2.2695   2.3724
     2.4439   2.6243   2.7735   2.8255   3.0978   3.3050   3.5130   3.5263
     3.6286   3.7562   4.0515   4.3452   4.5082   5.2113   5.2162   5.4963
     5.7794   6.0265   6.3306   6.6647   8.1789   8.1825   8.3469   8.4687
     9.0914   9.1982   9.3304   9.3704   9.9443  10.2600  10.2716  10.3049
    10.4551  10.7105

          k = 0.3750-0.5000 0.0000 ( 28592 PWs)   bands (ev):

   -51.6602 -50.7779 -49.7339 -28.0851 -28.0793 -28.0706 -27.2051 -27.1794
   -27.1710 -26.1618 -26.1532 -26.1184 -21.7868 -19.5990 -18.7205 -18.5942
   -11.8538 -11.5770 -11.5702 -11.1553 -10.5372 -10.4426 -10.1481  -9.6444
    -9.5687  -8.3017  -7.3247  -7.3180  -7.1565  -5.3379  -5.3305  -5.2011
    -4.4163  -4.4047  -4.3921  -4.0717  -4.0581  -3.9196   0.1477   0.7153
     0.9777   1.1958   1.4337   1.5945   1.6879   1.7710   2.1702   2.2421
     2.4632   2.7032   2.7055   2.7619   3.2477   3.2646   3.4816   3.5135
     3.6519   3.7439   4.1595   4.4317   4.5017   5.3163   5.3449   5.4909
     5.8038   6.1454   6.5389   6.5958   8.2248   8.3413   8.4900   8.8240
     8.9403   9.2589   9.3979   9.5061  10.0122  10.2962  10.3344  10.4294
    10.4406  10.5807

          k = 0.3750-0.3750 0.0000 ( 28573 PWs)   bands (ev):

   -51.6603 -50.7780 -49.7340 -28.0855 -28.0712 -28.0709 -27.2055 -27.1716
   -27.1713 -26.1539 -26.1535 -26.1188 -21.7962 -19.6110 -18.7305 -18.6060
   -11.9275 -11.6024 -11.5770 -11.1811 -10.5834 -10.4693 -10.1728  -9.6878
    -9.5920  -8.3231  -7.3299  -7.2052  -7.0952  -5.3493  -5.1761  -5.1552
    -4.4121  -4.3745  -4.2264  -4.1096  -3.9133  -3.8909   0.3151   0.7928
     1.0803   1.2971   1.4578   1.5456   1.7443   1.8492   2.2695   2.3724
     2.4439   2.6243   2.7735   2.8255   3.0978   3.3050   3.5130   3.5263
     3.6286   3.7562   4.0515   4.3452   4.5082   5.2113   5.2162   5.4963
     5.7794   6.0265   6.3306   6.6647   8.1789   8.1825   8.3469   8.4687
     9.0914   9.1982   9.3304   9.3704   9.9443  10.2600  10.2716  10.3049
    10.4551  10.7105

          k = 0.3750-0.2500 0.0000 ( 28586 PWs)   bands (ev):

   -51.6607 -50.7784 -49.7344 -28.0865 -28.0722 -28.0511 -27.2064 -27.1726
   -27.1522 -26.1548 -26.1341 -26.1197 -21.8185 -19.6397 -18.7546 -18.6342
   -12.1183 -11.6325 -11.6041 -11.2584 -10.7302 -10.4716 -10.2581  -9.8177
    -9.5958  -8.3759  -7.1802  -7.1364  -6.8934  -5.2061  -5.0598  -4.9389
    -4.2727  -4.2445  -4.0304  -3.9983  -3.8409  -3.6982   0.4758   1.1674
     1.2393   1.3732   1.4560   1.6012   1.7892   2.2655   2.3332   2.3639
     2.5411   2.6367   2.7692   3.0055   3.2211   3.3655   3.4390   3.5535
     3.6310   3.7601   3.8252   4.3034   4.4508   4.9088   5.0026   5.3458
     5.6854   5.7626   6.1972   6.5125   7.8065   7.9842   8.0988   8.1164
     8.8193   9.0857   9.1163   9.2642   9.9260  10.0392  10.0567  10.1780
    10.4556  10.7245

          k = 0.3750-0.1250 0.0000 ( 28621 PWs)   bands (ev):

   -51.6611 -50.7788 -49.7348 -28.0874 -28.0734 -28.0309 -27.2073 -27.1737
   -27.1328 -26.1560 -26.1207 -26.1142 -21.8406 -19.6679 -18.7784 -18.6619
   -12.3047 -11.6923 -11.6000 -11.3541 -10.8539 -10.4747 -10.3632  -9.9211
    -9.5891  -8.4294  -7.0934  -6.9430  -6.7333  -4.9754  -4.9562  -4.7649
    -4.1517  -3.9893  -3.9482  -3.8212  -3.7063  -3.5815   0.5211   0.9913
     1.3506   1.5586   1.6223   1.7971   2.0126   2.1774   2.2217   2.4967
     2.6359   2.7173   3.0122   3.0812   3.1149   3.3784   3.4651   3.6158
     3.7022   3.9813   4.0504   4.3084   4.4029   4.5765   4.8153   5.1349
     5.2489   5.8345   6.1120   6.3466   7.4498   7.7143   7.9299   7.9707
     8.5041   8.9091   9.0144   9.1133   9.6570   9.8251   9.8630  10.0851
    10.1679  10.4681

          k =-0.5000 0.0000 0.0000 ( 28646 PWs)   bands (ev):

   -51.6611 -50.7788 -49.7348 -28.0873 -28.0823 -28.0222 -27.2073 -27.1822
   -27.1245 -26.1647 -26.1206 -26.1057 -21.8382 -19.6639 -18.7756 -18.6583
   -12.3892 -11.7242 -11.5583 -11.4173 -10.8922 -10.4254 -10.4172  -9.9442
    -9.5462  -8.4908  -7.0704  -6.7819  -6.6962  -4.9345  -4.8102  -4.7039
    -4.1041  -3.9238  -3.8344  -3.7188  -3.5948  -3.5759   0.3085   0.7230
     1.2783   1.4504   1.6947   1.8161   1.9676   1.9834   2.0411   2.2999
     2.6493   2.7204   2.7841   3.0452   3.1584   3.1943   3.5441   3.5645
     4.0159   4.0616   4.1669   4.2240   4.3323   4.3998   4.6566   4.9221
     5.0874   5.8558   6.1359   6.2231   7.3492   8.0922   8.0946   8.2898
     8.4182   8.4235   9.0669   9.2294   9.4279   9.5933  10.0321  10.1382
    10.2313  10.3476

          k =-0.5000 0.1250 0.0000 ( 28608 PWs)   bands (ev):

   -51.6610 -50.7786 -49.7347 -28.0869 -28.0818 -28.0306 -27.2069 -27.1817
   -27.1325 -26.1642 -26.1202 -26.1139 -21.8295 -19.6529 -18.7662 -18.6475
   -12.3089 -11.6932 -11.5596 -11.3654 -10.8451 -10.4207 -10.3670  -9.9050
    -9.5505  -8.4590  -7.0916  -6.8756  -6.8089  -4.9806  -4.9062  -4.8287
    -4.1693  -3.9582  -3.9359  -3.7883  -3.6969  -3.6655   0.2963   0.9197
     1.2788   1.4343   1.5974   1.6552   1.8791   2.1191   2.1807   2.2897
     2.6303   2.6361   2.9055   2.9896   3.0809   3.3581   3.4777   3.5642
     3.6797   3.8767   4.0094   4.3279   4.3542   4.5292   4.7698   5.1226
     5.2495   5.8325   6.1104   6.2501   7.4794   8.1059   8.1594   8.3648
     8.5208   8.5343   9.1202   9.2548   9.6789   9.8298  10.0726  10.2652
    10.4010  10.4923

          k =-0.5000 0.2500 0.0000 ( 28558 PWs)   bands (ev):

   -51.6606 -50.7782 -49.7343 -28.0860 -28.0805 -28.0506 -27.2060 -27.1806
   -27.1518 -26.1630 -26.1337 -26.1193 -21.8083 -19.6261 -18.7435 -18.6210
   -12.1008 -11.6214 -11.5658 -11.2510 -10.7107 -10.4307 -10.2407  -9.7920
    -9.5602  -8.3809  -7.1608  -7.0986  -7.0422  -5.1283  -5.1072  -5.0812
    -4.3134  -4.1738  -4.1408  -3.8985  -3.8741  -3.8720   0.2590   1.2339
     1.2467   1.2720   1.3159   1.4375   1.7007   2.2569   2.3295   2.3362
     2.4173   2.5477   2.6874   3.0939   3.2720   3.3221   3.3414   3.5150
     3.5356   3.7916   3.8072   4.2914   4.4502   4.9434   5.0106   5.3365
     5.7503   5.8605   6.2173   6.3817   7.8482   8.2360   8.2763   8.5629
     8.7447   8.8745   9.2814   9.3200   9.9621  10.2193  10.2446  10.3490
    10.3817  10.8324

          k =-0.5000 0.3750 0.0000 ( 28592 PWs)   bands (ev):

   -51.6602 -50.7779 -49.7339 -28.0851 -28.0793 -28.0705 -27.2051 -27.1794
   -27.1710 -26.1618 -26.1532 -26.1184 -21.7868 -19.5990 -18.7205 -18.5942
   -11.8538 -11.5770 -11.5702 -11.1553 -10.5372 -10.4426 -10.1481  -9.6444
    -9.5687  -8.3017  -7.3247  -7.3180  -7.1565  -5.3379  -5.3305  -5.2011
    -4.4163  -4.4047  -4.3921  -4.0717  -4.0581  -3.9196   0.1477   0.7153
     0.9777   1.1958   1.4337   1.5945   1.6879   1.7710   2.1702   2.2421
     2.4632   2.7032   2.7055   2.7619   3.2477   3.2646   3.4816   3.5135
     3.6519   3.7439   4.1595   4.4317   4.5017   5.3163   5.3449   5.4909
     5.8038   6.1454   6.5389   6.5958   8.2248   8.3413   8.4900   8.8240
     8.9403   9.2589   9.3979   9.5061  10.0122  10.2963  10.3344  10.4294
    10.4406  10.5807

          k =-0.5000-0.5000 0.0000 ( 28672 PWs)   bands (ev):

   -51.6600 -50.7777 -49.7337 -28.0847 -28.0788 -28.0788 -27.2048 -27.1789
   -27.1789 -26.1613 -26.1613 -26.1180 -21.7779 -19.5877 -18.7109 -18.5830
   -11.7111 -11.5832 -11.5832 -11.1211 -10.4481 -10.4481 -10.1257  -9.5719
    -9.5719  -8.2690  -7.4081  -7.4081  -7.1822  -5.4213  -5.4213  -5.2437
    -4.4990  -4.4990  -4.4346  -4.1499  -4.1499  -3.9234   0.0271   0.5704
     0.8873   1.0899   1.4356   1.6216   1.6864   1.6864   2.0555   2.1650
     2.4522   2.5560   2.7871   2.7871   3.1969   3.2922   3.5632   3.5632
     3.7187   3.7187   4.2983   4.5422   4.5422   5.4505   5.5375   5.5375
     5.7459   6.2991   6.6976   6.6976   8.3774   8.3774   8.6116   8.9757
     8.9757   9.4359   9.4359   9.6233   9.9972  10.0997  10.4385  10.4633
    10.4633  10.5576

     the Fermi energy is     6.6596 ev

!    total energy              =    -912.44815925 Ry
     Harris-Foulkes estimate   =    -912.44815966 Ry
     estimated scf accuracy    <          8.7E-10 Ry

     convergence has been achieved in  32 iterations

     Forces acting on atoms (cartesian axes, Ry/au):

     atom    1 type  1   force =     0.00000007   -0.00000000    0.00716059
     atom    2 type  3   force =    -0.00000046   -0.00000012    0.03804861
     atom    3 type  2   force =     0.00000007   -0.00000005   -0.09773331
     atom    4 type  3   force =     0.00000009   -0.00000007    0.01520170
     atom    5 type  3   force =     0.00000037    0.00000023    0.01520130
     atom    6 type  1   force =     0.00000006    0.00000006   -0.02132160
     atom    7 type  3   force =    -0.00000006   -0.00000001    0.05459439
     atom    8 type  2   force =    -0.00000003    0.00000012   -0.06012900
     atom    9 type  3   force =     0.00000011    0.00000006    0.01982792
     atom   10 type  3   force =     0.00000024    0.00000003    0.01982655
     atom   11 type  1   force =     0.00000012    0.00000016   -0.02940797
     atom   12 type  3   force =    -0.00000121   -0.00000026    0.04202396
     atom   13 type  2   force =     0.00000023   -0.00000002   -0.03750642
     atom   14 type  3   force =     0.00000021   -0.00000023    0.02931880
     atom   15 type  3   force =     0.00000012    0.00000008    0.02931923
     atom   16 type  1   force =     0.00000005    0.00000007   -0.03993005
     atom   17 type  3   force =     0.00000002   -0.00000003    0.01550530

     Total force =     0.164138     Total SCF correction =     0.000113


     Computing stress (Cartesian axis) and pressure

          total   stress  (Ry/bohr**3)                   (kbar)     P=  -27.54
  -0.00022442  -0.00000000   0.00000000        -33.01     -0.00      0.00
  -0.00000000  -0.00022442  -0.00000000         -0.00    -33.01     -0.00
   0.00000000  -0.00000000  -0.00011281          0.00     -0.00    -16.59


     Parrinello-Rahman Damped Cell Dynamics Minimization:
     convergence thresholds EPSE = 1.00E-04  EPSF = 1.00E-03

     Entering Dynamics;  it =     1   time =  0.00000 pico-seconds

  new lattice vectors (alat unit) :
   0.999957733  -0.000000000   0.000000000
  -0.000000000   0.999957733   0.000000000
   0.000000000   0.000000000   5.538886101
  new unit-cell volume =   2366.9779 (a.u.)^3
  new positions in cryst coord
Ba       0.000000000  -0.000000000   0.230000366
O        0.499999999   0.500000000   0.225822547
Ti       0.500000000   0.500000000   0.323897721
O        0.500000000  -0.000000000   0.318630451
O        0.000000001   0.500000001   0.318630451
Ba       0.000000000   0.000000000   0.412352385
O        0.500000000   0.500000000   0.408183273
Ti       0.500000000   0.500000000   0.506256704
O        0.500000000   0.000000000   0.500985953
O        0.000000001   0.500000000   0.500985952
Ba       0.000000000   0.000000000   0.594705446
O        0.499999997   0.499999999   0.590531238
Ti       0.500000000   0.500000000   0.688613492
O        0.500000000  -0.000000001   0.683343587
O        0.000000000   0.500000000   0.683343587
Ba       0.000000000   0.000000000   0.777058383
O        0.500000000   0.500000000   0.772873088
  new positions in cart coord (alat unit)
Ba       0.000000000  -0.000000000   1.273945829
O        0.499978865   0.499978866   1.250805367
Ti       0.499978866   0.499978866   1.794032585
O        0.499978867  -0.000000000   1.764857779
O        0.000000001   0.499978867   1.764857778
Ba       0.000000000   0.000000000   2.283972895
O        0.499978866   0.499978866   2.260880658
Ti       0.499978866   0.499978866   2.804098222
O        0.499978867   0.000000000   2.774904132
O        0.000000001   0.499978866   2.774904129
Ba       0.000000000   0.000000000   3.294005731
O        0.499978863   0.499978866   3.270885264
Ti       0.499978867   0.499978866   3.814151702
O        0.499978867  -0.000000001   3.784962297
O        0.000000000   0.499978867   3.784962298
Ba       0.000000000   0.000000000   4.304037878
O        0.499978866   0.499978866   4.280856007

     Ekin =     0.00000000 Ry    T =    0.0 K  Etot =  -912.44815925
     new unit-cell volume =   2366.97794 a.u.^3 (   350.74994 Ang^3 )
     density =      4.03786 g/cm^3

CELL_PARAMETERS (angstrom)
   3.985831523  -0.000000000   0.000000000
  -0.000000000   3.985831523   0.000000000
   0.000000000   0.000000000  22.078000000

ATOMIC_POSITIONS (crystal)
Ba       0.000000000  -0.000000000   0.230000366
O        0.499999999   0.500000000   0.225822547
Ti       0.500000000   0.500000000   0.323897721
O        0.500000000  -0.000000000   0.318630451
O        0.000000001   0.500000001   0.318630451
Ba       0.000000000   0.000000000   0.412352385
O        0.500000000   0.500000000   0.408183273
Ti       0.500000000   0.500000000   0.506256704
O        0.500000000   0.000000000   0.500985953
O        0.000000001   0.500000000   0.500985952
Ba       0.000000000   0.000000000   0.594705446
O        0.499999997   0.499999999   0.590531238
Ti       0.500000000   0.500000000   0.688613492
O        0.500000000  -0.000000001   0.683343587
O        0.000000000   0.500000000   0.683343587
Ba       0.000000000   0.000000000   0.777058383
O        0.500000000   0.500000000   0.772873088



     Writing output data file BaTiO3_7_Ba-O_P4mm.save/
     NEW-OLD atomic charge density approx. for the potential
 
     Adding external electric field

     Computed dipole along edir(3) : 
        Dipole                0.3734 Ry au,          0.9491 Debye
        Dipole field          0.0020 Ry au, 
 
        Potential amp.       -0.1633 Ry
        Total length         41.1999 bohr
 
     extrapolated charge  135.98851, renormalised to  136.00000

     total cpu time spent up to now is       75.8 secs

     Self-consistent Calculation

     iteration #  1     ecut=    80.00 Ry     beta= 0.30
     Davidson diagonalization with overlap
     ethr =  1.00E-06,  avg # of iterations =  5.0
 
     Adding external electric field

     Computed dipole along edir(3) : 
        Dipole                0.3015 Ry au,          0.7664 Debye
        Dipole field          0.0016 Ry au, 
 
        Potential amp.       -0.1319 Ry
        Total length         41.1999 bohr
 

     total cpu time spent up to now is       79.1 secs

     total energy              =    -912.44041507 Ry
     Harris-Foulkes estimate   =    -912.81624371 Ry
     estimated scf accuracy    <       0.01681634 Ry

     iteration #  2     ecut=    80.00 Ry     beta= 0.30
     Davidson diagonalization with overlap
     ethr =  1.24E-05,  avg # of iterations =  6.8
 
     Adding external electric field

     Computed dipole along edir(3) : 
        Dipole                0.5385 Ry au,          1.3686 Debye
        Dipole field          0.0029 Ry au, 
 
        Potential amp.       -0.2356 Ry
        Total length         41.1999 bohr
 

     total cpu time spent up to now is       82.5 secs

     total energy              =    -912.44162073 Ry
     Harris-Foulkes estimate   =    -912.46344886 Ry
     estimated scf accuracy    <       0.22046751 Ry

     iteration #  3     ecut=    80.00 Ry     beta= 0.30
     Davidson diagonalization with overlap
     ethr =  1.24E-05,  avg # of iterations = 10.7
 
     Adding external electric field

     Computed dipole along edir(3) : 
        Dipole                0.3671 Ry au,          0.9330 Debye
        Dipole field          0.0019 Ry au, 
 
        Potential amp.       -0.1606 Ry
        Total length         41.1999 bohr
 

     total cpu time spent up to now is       86.3 secs

     total energy              =    -912.42459788 Ry
     Harris-Foulkes estimate   =    -912.46464820 Ry
     estimated scf accuracy    <       1.74506705 Ry

     iteration #  4     ecut=    80.00 Ry     beta= 0.30
     Davidson diagonalization with overlap
     ethr =  1.24E-05,  avg # of iterations =  8.4
 
     Adding external electric field

     Computed dipole along edir(3) : 
        Dipole                0.3860 Ry au,          0.9811 Debye
        Dipole field          0.0020 Ry au, 
 
        Potential amp.       -0.1689 Ry
        Total length         41.1999 bohr
 

     total cpu time spent up to now is       89.6 secs

     total energy              =    -912.44827155 Ry
     Harris-Foulkes estimate   =    -912.45067506 Ry
     estimated scf accuracy    <       0.09101709 Ry

     iteration #  5     ecut=    80.00 Ry     beta= 0.30
     Davidson diagonalization with overlap
     ethr =  1.24E-05,  avg # of iterations =  3.2
 
     Adding external electric field

     Computed dipole along edir(3) : 
        Dipole                0.3891 Ry au,          0.9889 Debye
        Dipole field          0.0021 Ry au, 
 
        Potential amp.       -0.1702 Ry
        Total length         41.1999 bohr
 

     total cpu time spent up to now is       91.8 secs

     total energy              =    -912.44852103 Ry
     Harris-Foulkes estimate   =    -912.44883803 Ry
     estimated scf accuracy    <       0.00544955 Ry

     iteration #  6     ecut=    80.00 Ry     beta= 0.30
     Davidson diagonalization with overlap
     ethr =  4.01E-06,  avg # of iterations =  5.4
 
     Adding external electric field

     Computed dipole along edir(3) : 
        Dipole                0.3807 Ry au,          0.9676 Debye
        Dipole field          0.0020 Ry au, 
 
        Potential amp.       -0.1665 Ry
        Total length         41.1999 bohr
 

     total cpu time spent up to now is       94.1 secs

     total energy              =    -912.44857226 Ry
     Harris-Foulkes estimate   =    -912.44872826 Ry
     estimated scf accuracy    <       0.00921302 Ry

     iteration #  7     ecut=    80.00 Ry     beta= 0.30
     Davidson diagonalization with overlap
     ethr =  4.01E-06,  avg # of iterations =  1.0
 
     Adding external electric field

     Computed dipole along edir(3) : 
        Dipole                0.3796 Ry au,          0.9650 Debye
        Dipole field          0.0020 Ry au, 
 
        Potential amp.       -0.1661 Ry
        Total length         41.1999 bohr
 

     total cpu time spent up to now is       95.7 secs

     total energy              =    -912.44857588 Ry
     Harris-Foulkes estimate   =    -912.44862831 Ry
     estimated scf accuracy    <       0.00174611 Ry

     iteration #  8     ecut=    80.00 Ry     beta= 0.30
     Davidson diagonalization with overlap
     ethr =  1.28E-06,  avg # of iterations =  1.6
 
     Adding external electric field

     Computed dipole along edir(3) : 
        Dipole                0.3763 Ry au,          0.9565 Debye
        Dipole field          0.0020 Ry au, 
 
        Potential amp.       -0.1646 Ry
        Total length         41.1999 bohr
 

     total cpu time spent up to now is       97.6 secs

     total energy              =    -912.44855504 Ry
     Harris-Foulkes estimate   =    -912.44859773 Ry
     estimated scf accuracy    <       0.00099178 Ry

     iteration #  9     ecut=    80.00 Ry     beta= 0.30
     Davidson diagonalization with overlap
     ethr =  7.29E-07,  avg # of iterations =  1.2
 
     Adding external electric field

     Computed dipole along edir(3) : 
        Dipole                0.3756 Ry au,          0.9548 Debye
        Dipole field          0.0020 Ry au, 
 
        Potential amp.       -0.1643 Ry
        Total length         41.1999 bohr
 

     total cpu time spent up to now is       99.2 secs

     total energy              =    -912.44853430 Ry
     Harris-Foulkes estimate   =    -912.44856532 Ry
     estimated scf accuracy    <       0.00183011 Ry

     iteration # 10     ecut=    80.00 Ry     beta= 0.30
     Davidson diagonalization with overlap
     ethr =  7.29E-07,  avg # of iterations =  1.0
 
     Adding external electric field

     Computed dipole along edir(3) : 
        Dipole                0.3593 Ry au,          0.9133 Debye
        Dipole field          0.0019 Ry au, 
 
        Potential amp.       -0.1572 Ry
        Total length         41.1999 bohr
 

     total cpu time spent up to now is      100.8 secs

     total energy              =    -912.44833334 Ry
     Harris-Foulkes estimate   =    -912.44860189 Ry
     estimated scf accuracy    <       0.00066565 Ry

     iteration # 11     ecut=    80.00 Ry     beta= 0.30
     Davidson diagonalization with overlap
     ethr =  4.89E-07,  avg # of iterations =  8.5
 
     Adding external electric field

     Computed dipole along edir(3) : 
        Dipole                0.3676 Ry au,          0.9345 Debye
        Dipole field          0.0020 Ry au, 
 
        Potential amp.       -0.1608 Ry
        Total length         41.1999 bohr
 

     total cpu time spent up to now is      104.5 secs

     total energy              =    -912.44838540 Ry
     Harris-Foulkes estimate   =    -912.44900253 Ry
     estimated scf accuracy    <       0.01827152 Ry

     iteration # 12     ecut=    80.00 Ry     beta= 0.30
     Davidson diagonalization with overlap
     ethr =  4.89E-07,  avg # of iterations =  1.4
 
     Adding external electric field

     Computed dipole along edir(3) : 
        Dipole                0.3698 Ry au,          0.9400 Debye
        Dipole field          0.0020 Ry au, 
 
        Potential amp.       -0.1618 Ry
        Total length         41.1999 bohr
 

     total cpu time spent up to now is      106.2 secs

     total energy              =    -912.44843342 Ry
     Harris-Foulkes estimate   =    -912.44847787 Ry
     estimated scf accuracy    <       0.00201311 Ry

     iteration # 13     ecut=    80.00 Ry     beta= 0.30
     Davidson diagonalization with overlap
     ethr =  4.89E-07,  avg # of iterations =  1.0
 
     Adding external electric field

     Computed dipole along edir(3) : 
        Dipole                0.3700 Ry au,          0.9403 Debye
        Dipole field          0.0020 Ry au, 
 
        Potential amp.       -0.1618 Ry
        Total length         41.1999 bohr
 

     total cpu time spent up to now is      107.8 secs

     total energy              =    -912.44846922 Ry
     Harris-Foulkes estimate   =    -912.44847264 Ry
     estimated scf accuracy    <       0.00034118 Ry

     iteration # 14     ecut=    80.00 Ry     beta= 0.30
     Davidson diagonalization with overlap
     ethr =  2.51E-07,  avg # of iterations =  1.0
 
     Adding external electric field

     Computed dipole along edir(3) : 
        Dipole                0.3693 Ry au,          0.9387 Debye
        Dipole field          0.0020 Ry au, 
 
        Potential amp.       -0.1616 Ry
        Total length         41.1999 bohr
 

     total cpu time spent up to now is      109.3 secs

     total energy              =    -912.44846980 Ry
     Harris-Foulkes estimate   =    -912.44847357 Ry
     estimated scf accuracy    <       0.00004289 Ry

     iteration # 15     ecut=    80.00 Ry     beta= 0.30
     Davidson diagonalization with overlap
     ethr =  3.15E-08,  avg # of iterations =  1.5
 
     Adding external electric field

     Computed dipole along edir(3) : 
        Dipole                0.3694 Ry au,          0.9390 Debye
        Dipole field          0.0020 Ry au, 
 
        Potential amp.       -0.1616 Ry
        Total length         41.1999 bohr
 

     total cpu time spent up to now is      111.1 secs

     total energy              =    -912.44847080 Ry
     Harris-Foulkes estimate   =    -912.44847036 Ry
     estimated scf accuracy    <       0.00000265 Ry

     iteration # 16     ecut=    80.00 Ry     beta= 0.30
     Davidson diagonalization with overlap
     ethr =  1.95E-09,  avg # of iterations =  4.4
 
     Adding external electric field

     Computed dipole along edir(3) : 
        Dipole                0.3694 Ry au,          0.9389 Debye
        Dipole field          0.0020 Ry au, 
 
        Potential amp.       -0.1616 Ry
        Total length         41.1999 bohr
 

     total cpu time spent up to now is      113.3 secs

     total energy              =    -912.44847108 Ry
     Harris-Foulkes estimate   =    -912.44847134 Ry
     estimated scf accuracy    <       0.00002029 Ry

     iteration # 17     ecut=    80.00 Ry     beta= 0.30
     Davidson diagonalization with overlap
     ethr =  1.95E-09,  avg # of iterations =  1.0
 
     Adding external electric field

     Computed dipole along edir(3) : 
        Dipole                0.3696 Ry au,          0.9394 Debye
        Dipole field          0.0020 Ry au, 
 
        Potential amp.       -0.1617 Ry
        Total length         41.1999 bohr
 

     total cpu time spent up to now is      114.9 secs

     total energy              =    -912.44847062 Ry
     Harris-Foulkes estimate   =    -912.44847023 Ry
     estimated scf accuracy    <       0.00001634 Ry

     iteration # 18     ecut=    80.00 Ry     beta= 0.30
     Davidson diagonalization with overlap
     ethr =  1.95E-09,  avg # of iterations =  1.0
 
     Adding external electric field

     Computed dipole along edir(3) : 
        Dipole                0.3694 Ry au,          0.9390 Debye
        Dipole field          0.0020 Ry au, 
 
        Potential amp.       -0.1616 Ry
        Total length         41.1999 bohr
 

     total cpu time spent up to now is      116.5 secs

     total energy              =    -912.44847065 Ry
     Harris-Foulkes estimate   =    -912.44847195 Ry
     estimated scf accuracy    <       0.00003191 Ry

     iteration # 19     ecut=    80.00 Ry     beta= 0.30
     Davidson diagonalization with overlap
     ethr =  1.95E-09,  avg # of iterations =  1.0
 
     Adding external electric field

     Computed dipole along edir(3) : 
        Dipole                0.3694 Ry au,          0.9390 Debye
        Dipole field          0.0020 Ry au, 
 
        Potential amp.       -0.1616 Ry
        Total length         41.1999 bohr
 

     total cpu time spent up to now is      118.6 secs

     total energy              =    -912.44847099 Ry
     Harris-Foulkes estimate   =    -912.44847109 Ry
     estimated scf accuracy    <       0.00000470 Ry

     iteration # 20     ecut=    80.00 Ry     beta= 0.30
     Davidson diagonalization with overlap
     ethr =  1.95E-09,  avg # of iterations =  1.0
 
     Adding external electric field

     Computed dipole along edir(3) : 
        Dipole                0.3694 Ry au,          0.9389 Debye
        Dipole field          0.0020 Ry au, 
 
        Potential amp.       -0.1616 Ry
        Total length         41.1999 bohr
 

     total cpu time spent up to now is      120.1 secs

     total energy              =    -912.44847101 Ry
     Harris-Foulkes estimate   =    -912.44847113 Ry
     estimated scf accuracy    <       0.00000011 Ry

     iteration # 21     ecut=    80.00 Ry     beta= 0.30
     Davidson diagonalization with overlap
     ethr =  8.15E-11,  avg # of iterations =  1.6
 
     Adding external electric field

     Computed dipole along edir(3) : 
        Dipole                0.3694 Ry au,          0.9389 Debye
        Dipole field          0.0020 Ry au, 
 
        Potential amp.       -0.1616 Ry
        Total length         41.1999 bohr
 

     total cpu time spent up to now is      122.3 secs

     total energy              =    -912.44847101 Ry
     Harris-Foulkes estimate   =    -912.44847101 Ry
     estimated scf accuracy    <          6.7E-09 Ry

     iteration # 22     ecut=    80.00 Ry     beta= 0.30
     Davidson diagonalization with overlap
     ethr =  4.93E-12,  avg # of iterations =  3.4
 
     Adding external electric field

     Computed dipole along edir(3) : 
        Dipole                0.3694 Ry au,          0.9389 Debye
        Dipole field          0.0020 Ry au, 
 
        Potential amp.       -0.1616 Ry
        Total length         41.1999 bohr
 

     total cpu time spent up to now is      124.7 secs

     total energy              =    -912.44847101 Ry
     Harris-Foulkes estimate   =    -912.44847103 Ry
     estimated scf accuracy    <          4.9E-09 Ry

     iteration # 23     ecut=    80.00 Ry     beta= 0.30
     Davidson diagonalization with overlap
     ethr =  3.63E-12,  avg # of iterations =  1.2
 
     Adding external electric field

     Computed dipole along edir(3) : 
        Dipole                0.3694 Ry au,          0.9389 Debye
        Dipole field          0.0020 Ry au, 
 
        Potential amp.       -0.1616 Ry
        Total length         41.1999 bohr
 

     total cpu time spent up to now is      126.3 secs

     total energy              =    -912.44847101 Ry
     Harris-Foulkes estimate   =    -912.44847103 Ry
     estimated scf accuracy    <          2.7E-09 Ry

     iteration # 24     ecut=    80.00 Ry     beta= 0.30
     Davidson diagonalization with overlap
     ethr =  1.97E-12,  avg # of iterations =  1.1
 
     Adding external electric field

     Computed dipole along edir(3) : 
        Dipole                0.3691 Ry au,          0.9382 Debye
        Dipole field          0.0020 Ry au, 
 
        Potential amp.       -0.1615 Ry
        Total length         41.1999 bohr
 

     total cpu time spent up to now is      127.9 secs

     End of self-consistent calculation

          k = 0.0000 0.0000 0.0000 ( 28531 PWs)   bands (ev):

[...]
    11.4721  11.5101

          k = 0.2528-0.1264 0.0000 ( 28628 PWs)   bands (ev):

   -50.1832 -50.1389 -50.0749 -26.6260 -26.6007 -26.5778 -26.5527 -26.5379
   -26.4914 -26.4849 -26.4606 -26.4356 -19.8094 -19.8014 -18.5875 -18.5357
   -11.0383 -10.9622 -10.7040 -10.3634 -10.2866 -10.0075  -9.9323  -9.8614
    -9.7227  -9.6472  -5.0967  -5.0926  -4.9396  -4.9204  -4.6097  -4.5910
    -3.9149  -3.8362  -3.8253  -3.8104  -3.4815  -3.4653   2.2314   2.3393
     2.5199   2.6996   2.7910   2.9381   2.9856   3.0633   3.2121   3.3951
     3.5196   3.5736   3.6318   3.7444   3.7695   3.9011   3.9609   4.2534
     4.3927   4.6050   4.7341   4.7567   4.9351   4.9796   5.0556   5.2402
     5.4205   5.4831   5.5346   5.5783   8.5486   8.7261   8.8743   8.9397
     8.9702   8.9801   9.1344   9.1818   9.2483   9.4748   9.6011  10.8558
    11.1686  11.1948

          k = 0.3793 0.0000 0.0000 ( 28650 PWs)   bands (ev):

   -50.1830 -50.1386 -50.0747 -26.6506 -26.6023 -26.5897 -26.5418 -26.5370
   -26.5085 -26.4904 -26.4500 -26.4349 -19.7868 -19.7795 -18.5569 -18.5119
   -11.0770 -10.9952 -10.7078 -10.2803 -10.2062  -9.9482  -9.9042  -9.8970
    -9.8119  -9.7561  -5.0789  -5.0751  -4.6811  -4.6688  -4.6659  -4.6461
    -3.8355  -3.8205  -3.6922  -3.6019  -3.5136  -3.4937   1.7886   1.8530
     2.0625   2.1733   2.4822   2.5707   3.0163   3.1231   3.2415   3.2578
     3.4039   3.5270   3.5357   3.5793   3.6069   3.6787   3.8826   4.0942
     4.2442   4.2942   4.5498   4.7322   4.8497   4.8642   4.9209   4.9599
     5.2999   5.4832   5.5262   5.7998   8.3856   8.9142   9.2654   9.3706
     9.4188   9.4464   9.4674   9.5459   9.6032   9.7003   9.8560  10.5420
    10.7883  10.9669

          k = 0.3793 0.1264 0.0000 ( 28621 PWs)   bands (ev):

   -50.1828 -50.1384 -50.0745 -26.6500 -26.6017 -26.5996 -26.5516 -26.5365
   -26.5080 -26.4899 -26.4596 -26.4345 -19.7756 -19.7684 -18.5435 -18.4995
   -10.9882 -10.9065 -10.6232 -10.2801 -10.2046  -9.9361  -9.9082  -9.8869
    -9.7910  -9.7325  -5.1208  -5.1105  -4.8847  -4.8674  -4.6518  -4.6351
    -3.9213  -3.8908  -3.8177  -3.7409  -3.5376  -3.4889   1.7803   1.8448
     2.0411   2.3555   2.5029   2.6129   2.8382   2.9783   3.1261   3.2631
     3.3238   3.3530   3.4263   3.4672   3.5147   3.7140   3.7817   4.2115
     4.4012   4.4234   4.6152   4.6814   4.8970   4.9792   5.0475   5.0519
     5.1967   5.3815   5.4923   5.7921   8.6219   9.0587   9.3414   9.4265
     9.4970   9.5154   9.5304   9.5980   9.6731   9.8139   9.9010  10.8014
    11.0097  11.1780

          k = 0.3793 0.2528 0.0000 ( 28586 PWs)   bands (ev):

   -50.1823 -50.1380 -50.0740 -26.6485 -26.6234 -26.6002 -26.5753 -26.5354
   -26.5066 -26.4888 -26.4825 -26.4334 -19.7482 -19.7415 -18.5107 -18.4693
   -10.7622 -10.6809 -10.4126 -10.2876 -10.2098  -9.9298  -9.8960  -9.8566
    -9.7388  -9.6743  -5.2253  -5.2016  -5.1396  -5.1256  -4.8194  -4.8058
    -4.1850  -4.0948  -3.9384  -3.9184  -3.6746  -3.6058   1.7546   1.8226
     2.0005   2.4312   2.4765   2.4884   2.6531   2.7244   2.8162   2.8783
     3.0021   3.1480   3.3342   3.3781   3.4239   3.4674   3.7417   4.1962
     4.4571   4.6255   4.9519   5.0456   5.1234   5.1828   5.2324   5.2852
     5.3242   5.4855   5.5237   5.7916   9.1565   9.4214   9.5611   9.5960
     9.6253   9.6947   9.7878   9.7952   9.9034   9.9882  10.1186  11.0932
    11.2212  11.4715

          k = 0.3793 0.3793 0.0000 ( 28573 PWs)   bands (ev):

   -50.1818 -50.1375 -50.0735 -26.6473 -26.6468 -26.5990 -26.5985 -26.5342
   -26.5055 -26.5051 -26.4876 -26.4324 -19.7205 -19.7142 -18.4774 -18.4387
   -10.5242 -10.4427 -10.2919 -10.2113 -10.1965  -9.9112  -9.8854  -9.8421
    -9.6878  -9.6155  -5.3150  -5.3088  -5.2998  -5.2772  -5.0624  -5.0515
    -4.3726  -4.2263  -4.1572  -4.0612  -3.8167  -3.7320   1.6139   1.6881
     1.8793   2.0193   2.0849   2.1515   2.3004   2.4425   2.5844   2.9784
     3.0605   3.1909   3.2286   3.2913   3.3528   3.5587   3.6407   4.2713
     4.6310   4.9378   5.1127   5.2349   5.3017   5.3361   5.4391   5.5096
     5.5639   5.6180   5.8119   5.8374   9.6501   9.6827   9.8138   9.8148
     9.8587   9.9193  10.0900  10.1007  10.1663  10.2882  10.5085  11.1385
    11.2152  11.5190

          k = 0.3793-0.5057 0.0000 ( 28592 PWs)   bands (ev):

   -50.1816 -50.1373 -50.0734 -26.6567 -26.6464 -26.6084 -26.5982 -26.5337
   -26.5147 -26.5048 -26.4872 -26.4319 -19.7089 -19.7028 -18.4635 -18.4259
   -10.4461 -10.3618 -10.2565 -10.1758 -10.1164  -9.9017  -9.8791  -9.8519
    -9.6694  -9.5915  -5.3718  -5.3410  -5.2947  -5.2790  -5.2237  -5.2067
    -4.3653  -4.3461  -4.2778  -4.0190  -3.9900  -3.7388   1.4235   1.4981
     1.7135   1.9396   1.9947   2.0060   2.2202   2.3857   2.5928   2.9918
     3.0742   3.1107   3.2586   3.3084   3.3240   3.5125   3.7057   4.3029
     4.6838   5.1957   5.2274   5.2966   5.3021   5.4314   5.5048   5.5471
     5.5912   5.6987   5.8907   5.9123   9.6931   9.8629   9.8774   9.9958
    10.0101  10.0707  10.1417  10.2460  10.3205  10.7346  10.8311  10.8661
    10.9557  11.5822

          k = 0.3793-0.3793 0.0000 ( 28573 PWs)   bands (ev):

   -50.1818 -50.1375 -50.0735 -26.6473 -26.6468 -26.5990 -26.5985 -26.5342
   -26.5055 -26.5051 -26.4876 -26.4324 -19.7205 -19.7142 -18.4774 -18.4387
   -10.5242 -10.4427 -10.2919 -10.2113 -10.1965  -9.9112  -9.8854  -9.8421
    -9.6878  -9.6155  -5.3150  -5.3088  -5.2998  -5.2772  -5.0624  -5.0515
    -4.3726  -4.2263  -4.1572  -4.0612  -3.8167  -3.7320   1.6139   1.6881
     1.8793   2.0193   2.0849   2.1515   2.3004   2.4425   2.5844   2.9784
     3.0605   3.1909   3.2286   3.2913   3.3528   3.5587   3.6407   4.2713
     4.6310   4.9378   5.1127   5.2349   5.3017   5.3361   5.4391   5.5096
     5.5639   5.6180   5.8119   5.8374   9.6501   9.6827   9.8138   9.8148
     9.8587   9.9193  10.0900  10.1007  10.1663  10.2882  10.5085  11.1385
    11.2152  11.5190

          k = 0.3793-0.2528 0.0000 ( 28586 PWs)   bands (ev):

   -50.1823 -50.1380 -50.0740 -26.6485 -26.6234 -26.6002 -26.5753 -26.5354
   -26.5066 -26.4888 -26.4825 -26.4334 -19.7482 -19.7415 -18.5107 -18.4693
   -10.7622 -10.6809 -10.4126 -10.2876 -10.2098  -9.9298  -9.8960  -9.8566
    -9.7388  -9.6743  -5.2253  -5.2016  -5.1396  -5.1256  -4.8194  -4.8058
    -4.1850  -4.0948  -3.9384  -3.9184  -3.6746  -3.6058   1.7546   1.8226
     2.0005   2.4312   2.4765   2.4884   2.6531   2.7244   2.8162   2.8783
     3.0021   3.1480   3.3342   3.3781   3.4239   3.4674   3.7417   4.1962
     4.4571   4.6255   4.9519   5.0456   5.1234   5.1828   5.2324   5.2852
     5.3242   5.4855   5.5237   5.7916   9.1565   9.4214   9.5611   9.5960
     9.6253   9.6947   9.7878   9.7952   9.9034   9.9882  10.1186  11.0932
    11.2212  11.4715

          k = 0.3793-0.1264 0.0000 ( 28621 PWs)   bands (ev):

   -50.1828 -50.1384 -50.0745 -26.6500 -26.6017 -26.5996 -26.5516 -26.5365
   -26.5080 -26.4899 -26.4596 -26.4345 -19.7756 -19.7684 -18.5435 -18.4995
   -10.9882 -10.9065 -10.6232 -10.2801 -10.2046  -9.9361  -9.9082  -9.8869
    -9.7910  -9.7325  -5.1208  -5.1105  -4.8847  -4.8674  -4.6518  -4.6351
    -3.9213  -3.8908  -3.8177  -3.7409  -3.5376  -3.4889   1.7803   1.8448
     2.0411   2.3555   2.5029   2.6129   2.8382   2.9783   3.1261   3.2631
     3.3238   3.3530   3.4263   3.4672   3.5147   3.7140   3.7817   4.2115
     4.4012   4.4234   4.6152   4.6814   4.8970   4.9792   5.0475   5.0519
     5.1967   5.3815   5.4923   5.7921   8.6219   9.0587   9.3414   9.4265
     9.4970   9.5154   9.5304   9.5980   9.6731   9.8139   9.9010  10.8014
    11.0097  11.1780

          k =-0.5057-0.0000 0.0000 ( 28646 PWs)   bands (ev):

   -50.1828 -50.1384 -50.0745 -26.6605 -26.6121 -26.5893 -26.5414 -26.5364
   -26.5181 -26.4898 -26.4497 -26.4344 -19.7722 -19.7651 -18.5375 -18.4961
   -11.0920 -10.9998 -10.6685 -10.2365 -10.1598  -9.9530  -9.9109  -9.8519
    -9.8353  -9.7985  -5.0793  -5.0738  -4.6646  -4.6503  -4.6417  -4.6192
    -3.8642  -3.7957  -3.7179  -3.5696  -3.4816  -3.4574   1.5387   1.6055
     1.8282   1.9987   2.3226   2.5083   3.0007   3.0749   3.1517   3.2790
     3.3150   3.3402   3.4649   3.4690   3.5375   3.5532   3.8186   3.9678
     4.1274   4.2170   4.4459   4.7777   4.8198   4.9396   4.9435   5.0024
     5.2220   5.3996   5.4716   5.8511   8.4110   8.9328   9.4321   9.6153
     9.6765   9.7012   9.7383   9.8386  10.0271  10.0680  10.0953  10.3249
    10.3826  10.7495

          k =-0.5057 0.1264 0.0000 ( 28608 PWs)   bands (ev):

   -50.1826 -50.1382 -50.0743 -26.6599 -26.6115 -26.5992 -26.5512 -26.5359
   -26.5175 -26.4894 -26.4592 -26.4340 -19.7614 -19.7546 -18.5250 -18.4843
   -10.9977 -10.9057 -10.5792 -10.2353 -10.1589  -9.9355  -9.8918  -9.8477
    -9.8189  -9.7643  -5.1305  -5.1173  -4.7757  -4.7613  -4.7546  -4.7371
    -3.9646  -3.8368  -3.8166  -3.6236  -3.6034  -3.5815   1.5314   1.5990
     1.8155   2.2515   2.4423   2.5158   2.8572   2.9664   3.0063   3.1565
     3.2220   3.3346   3.3681   3.3900   3.3927   3.6296   3.7068   4.1949
     4.2997   4.5469   4.5815   4.6486   4.9396   4.9606   5.0203   5.0249
     5.0529   5.2944   5.4561   5.8533   8.6503   9.0890   9.5468   9.6389
     9.6953   9.7419   9.7906   9.8962  10.0630  10.1873  10.2208  10.4331
    10.4904  11.0666

          k =-0.5057 0.2528 0.0000 ( 28558 PWs)   bands (ev):

   -50.1821 -50.1378 -50.0738 -26.6583 -26.6229 -26.6100 -26.5748 -26.5348
   -26.5161 -26.4883 -26.4820 -26.4330 -19.7354 -19.7288 -18.4944 -18.4553
   -10.7498 -10.6592 -10.3527 -10.2404 -10.1619  -9.9051  -9.8702  -9.8550
    -9.7390  -9.6798  -5.2573  -5.2294  -5.0382  -5.0235  -4.9957  -4.9869
    -4.1542  -4.1097  -4.0527  -3.8093  -3.7866  -3.7263   1.5084   1.5785
     1.7892   2.3421   2.5045   2.5071   2.5877   2.6482   2.7756   2.8769
     2.8966   3.0554   3.2987   3.3486   3.3690   3.4211   3.7823   4.2717
     4.6332   4.7564   4.9795   5.0112   5.1050   5.1304   5.1458   5.2024
     5.2908   5.4631   5.5248   5.8666   9.1873   9.4692   9.7784   9.8154
     9.8315   9.8366   9.8937  10.0753  10.1511  10.4427  10.5233  10.6363
    10.7412  11.5053

          k =-0.5057 0.3793 0.0000 ( 28592 PWs)   bands (ev):

   -50.1816 -50.1373 -50.0734 -26.6567 -26.6464 -26.6084 -26.5982 -26.5337
   -26.5147 -26.5048 -26.4872 -26.4319 -19.7089 -19.7028 -18.4635 -18.4259
   -10.4461 -10.3618 -10.2565 -10.1758 -10.1164  -9.9017  -9.8791  -9.8519
    -9.6694  -9.5915  -5.3718  -5.3410  -5.2947  -5.2790  -5.2237  -5.2067
    -4.3653  -4.3461  -4.2778  -4.0190  -3.9900  -3.7388   1.4235   1.4981
     1.7135   1.9396   1.9947   2.0060   2.2202   2.3857   2.5928   2.9918
     3.0742   3.1107   3.2586   3.3084   3.3240   3.5125   3.7057   4.3029
     4.6838   5.1957   5.2274   5.2966   5.3021   5.4314   5.5048   5.5471
     5.5912   5.6987   5.8907   5.9123   9.6931   9.8629   9.8774   9.9958
    10.0101  10.0707  10.1417  10.2460  10.3205  10.7346  10.8311  10.8661
    10.9557  11.5822

          k =-0.5057-0.5057 0.0000 ( 28672 PWs)   bands (ev):

   -50.1814 -50.1371 -50.0732 -26.6561 -26.6561 -26.6078 -26.6078 -26.5333
   -26.5141 -26.5141 -26.4867 -26.4315 -19.6979 -19.6919 -18.4505 -18.4136
   -10.2665 -10.2665 -10.1850 -10.1850 -10.0829  -9.8876  -9.8786  -9.8786
    -9.6543  -9.5530  -5.3998  -5.3998  -5.3831  -5.3831  -5.3316  -5.2933
    -4.4665  -4.4665  -4.2931  -4.1005  -4.1005  -3.7372   1.3036   1.3798
     1.5999   1.7673   1.8329   1.8738   2.0458   2.3516   2.6009   3.0768
     3.0768   3.1261   3.2354   3.2354   3.3297   3.6382   3.6382   4.2895
     4.6573   5.3682   5.3682   5.4442   5.4442   5.6069   5.6069   5.6403
     5.7300   5.9003   5.9003   6.0518   9.9009   9.9009  10.0387  10.0387
    10.1353  10.1968  10.2880  10.2880  10.4479  10.8983  10.8983  10.9991
    10.9991  11.5155

     the Fermi energy is     6.7797 ev

!    total energy              =    -912.50795934 Ry
     Harris-Foulkes estimate   =    -912.50795934 Ry
     estimated scf accuracy    <          1.4E-10 Ry

     convergence has been achieved in  11 iterations

     Forces acting on atoms (cartesian axes, Ry/au):

     atom    1 type  1   force =    -0.00000000    0.00000000    0.01699093
     atom    2 type  3   force =     0.00000000    0.00000000    0.00102879
     atom    3 type  2   force =     0.00000000   -0.00000000   -0.00817106
     atom    4 type  3   force =    -0.00000000    0.00000000   -0.00039720
     atom    5 type  3   force =    -0.00000000    0.00000000   -0.00039717
     atom    6 type  1   force =    -0.00000000    0.00000000    0.00353592
     atom    7 type  3   force =    -0.00000000   -0.00000000   -0.00018104
     atom    8 type  2   force =     0.00000001   -0.00000001   -0.00130489
     atom    9 type  3   force =     0.00000001    0.00000000   -0.00029358
     atom   10 type  3   force =     0.00000000   -0.00000000   -0.00029357
     atom   11 type  1   force =    -0.00000000    0.00000000   -0.00305930
     atom   12 type  3   force =    -0.00000001   -0.00000001    0.00009219
     atom   13 type  2   force =     0.00000000   -0.00000000    0.00099990
     atom   14 type  3   force =     0.00000000    0.00000000    0.00083045
     atom   15 type  3   force =    -0.00000000    0.00000001    0.00083044
     atom   16 type  1   force =     0.00000000    0.00000000   -0.00831628
     atom   17 type  3   force =    -0.00000000   -0.00000000   -0.00189454

     Total force =     0.021348     Total SCF correction =     0.000043


     Computing stress (Cartesian axis) and pressure

          total   stress  (Ry/bohr**3)                   (kbar)     P=   -4.27
   0.00001360   0.00000000  -0.00000000          2.00      0.00     -0.00
   0.00000000   0.00001360  -0.00000000          0.00      2.00     -0.00
  -0.00000000  -0.00000000  -0.00011430         -0.00     -0.00    -16.81


     Entering Dynamics;  it =    50   time =  0.04743 pico-seconds

  new lattice vectors (alat unit) :
   0.988826481  -0.000000000   0.000000000
  -0.000000000   0.988826481   0.000000000
   0.000000000   0.000000000   5.538886101
  new unit-cell volume =   2314.5742 (a.u.)^3
  new positions in cryst coord
Ba      -0.000000000  -0.000000000   0.231640920
O        0.499999998   0.499999996   0.231503650
Ti       0.499999998   0.500000001   0.318879268
O        0.500000001   0.000000001   0.319194699
O        0.000000002   0.500000000   0.319194692
Ba      -0.000000000   0.000000001   0.412462404
O        0.500000003   0.500000011   0.412368200
Ti       0.500000001   0.499999995   0.503693547
O        0.499999983   0.000000024   0.503631827
O       -0.000000010   0.500000020   0.503631823
Ba       0.000000001   0.000000004   0.594257953
O        0.500000007   0.500000015   0.594668915
Ti       0.499999998   0.500000002   0.688398545
O        0.500000001   0.000000006   0.687686449
O        0.000000008   0.499999997   0.687686449
Ba       0.000000001   0.000000001   0.773903351
O        0.500000011   0.500000015   0.775272817
  new positions in cart coord (alat unit)
Ba      -0.000000000  -0.000000000   1.283032674
O        0.494413239   0.494413237   1.282272352
Ti       0.494413239   0.494413242   1.766235947
O        0.494413242   0.000000001   1.767983081
O        0.000000002   0.494413241   1.767983042
Ba      -0.000000000   0.000000001   2.284582277
O        0.494413244   0.494413252   2.284060489
Ti       0.494413241   0.494413236   2.789901184
O        0.494413223   0.000000024   2.789559328
O       -0.000000010   0.494413261   2.789559307
Ba       0.000000001   0.000000004   3.291527118
O        0.494413248   0.494413256   3.293803388
Ti       0.494413238   0.494413243   3.812961135
O        0.494413242   0.000000006   3.809016912
O        0.000000008   0.494413238   3.809016917
Ba       0.000000001   0.000000001   4.286562515
O        0.494413251   0.494413256   4.294147832

     Ekin =     0.00446898 Ry    T =   78.6 K  Etot =  -912.50349036
     new unit-cell volume =   2314.57417 a.u.^3 (   342.98450 Ang^3 )
     density =      4.12928 g/cm^3

CELL_PARAMETERS (angstrom)
   3.941462353  -0.000000000   0.000000000
  -0.000000000   3.941462355   0.000000000
   0.000000000   0.000000000  22.078000000

ATOMIC_POSITIONS (crystal)
Ba      -0.000000000  -0.000000000   0.231640920
O        0.499999998   0.499999996   0.231503650
Ti       0.499999998   0.500000001   0.318879268
O        0.500000001   0.000000001   0.319194699
O        0.000000002   0.500000000   0.319194692
Ba      -0.000000000   0.000000001   0.412462404
O        0.500000003   0.500000011   0.412368200
Ti       0.500000001   0.499999995   0.503693547
O        0.499999983   0.000000024   0.503631827
O       -0.000000010   0.500000020   0.503631823
Ba       0.000000001   0.000000004   0.594257953
O        0.500000007   0.500000015   0.594668915
Ti       0.499999998   0.500000002   0.688398545
O        0.500000001   0.000000006   0.687686449
O        0.000000008   0.499999997   0.687686449
Ba       0.000000001   0.000000001   0.773903351
O        0.500000011   0.500000015   0.775272817



     Maximum number of iterations reached, stopping

     Writing output data file BaTiO3_7_Ba-O_P4mm.save/
     NEW-OLD atomic charge density approx. for the potential
 
     Adding external electric field

     Computed dipole along edir(3) : 
        Dipole               -0.0143 Ry au,         -0.0364 Debye
        Dipole field         -0.0001 Ry au, 
 
        Potential amp.        0.0064 Ry
        Total length         41.1999 bohr
 
     extrapolated charge  136.01884, renormalised to  136.00000

     Writing output data file BaTiO3_7_Ba-O_P4mm.save/
 
     init_run     :      1.13s CPU      1.53s WALL (       1 calls)
     electrons    :   2075.79s CPU   2118.90s WALL (      50 calls)
     update_pot   :     21.67s CPU     21.80s WALL (      50 calls)
     forces       :     23.99s CPU     24.33s WALL (      50 calls)
     stress       :     91.00s CPU     92.00s WALL (      50 calls)

     Called by init_run:
     wfcinit      :      0.69s CPU      0.76s WALL (       1 calls)
     potinit      :      0.14s CPU      0.21s WALL (       1 calls)
     hinit0       :      0.19s CPU      0.31s WALL (       1 calls)

     Called by electrons:
     c_bands      :   1877.68s CPU   1903.41s WALL (     866 calls)
     sum_band     :    181.55s CPU    185.54s WALL (     866 calls)
     v_of_rho     :     10.25s CPU     10.41s WALL (     901 calls)
     mix_rho      :      3.58s CPU      3.63s WALL (     866 calls)

     Called by c_bands:
     init_us_2    :     27.53s CPU     28.08s WALL (   16497 calls)
     cegterg      :   1596.47s CPU   1620.10s WALL (    7794 calls)

     Called by sum_band:

     Called by *egterg:
     h_psi        :    894.07s CPU    912.13s WALL (   39906 calls)
     g_psi        :      3.41s CPU      3.46s WALL (   32103 calls)
     cdiaghg      :    460.44s CPU    463.64s WALL (   39312 calls)

     Called by h_psi:
     h_psi:pot    :    887.51s CPU    905.44s WALL (   39906 calls)
     h_psi:calbec :     78.70s CPU     79.84s WALL (   39906 calls)
     vloc_psi     :    732.21s CPU    748.26s WALL (   39906 calls)
     add_vuspsi   :     76.28s CPU     77.09s WALL (   39906 calls)

     General routines
     calbec       :     89.60s CPU     90.89s WALL (   42156 calls)
     fft          :      9.64s CPU      9.95s WALL (   11978 calls)
     ffts         :      0.94s CPU      1.01s WALL (    1767 calls)
     fftw         :    844.59s CPU    863.10s WALL ( 3611564 calls)
     interpolate  :      1.03s CPU      1.18s WALL (     901 calls)
     davcio       :      0.00s CPU      0.01s WALL (       9 calls)
 
     Parallel routines
     fft_scatt_xy :     69.94s CPU     71.41s WALL ( 3625309 calls)
     fft_scatt_yz :    488.20s CPU    499.02s WALL ( 3625309 calls)
 
     PWSCF        :  36m58.36s CPU  38m 0.19s WALL

 
   This run was terminated on:  18: 5:25   2Jun2021            

=------------------------------------------------------------------------------=
   JOB DONE.
=------------------------------------------------------------------------------=
